
     Program PWSCF v.7.2 starts on 17Jul2025 at 21:23:13 

     This program is part of the open-source Quantum ESPRESSO suite
     for quantum simulation of materials; please cite
         "P. Giannozzi et al., J. Phys.:Condens. Matter 21 395502 (2009);
         "P. Giannozzi et al., J. Phys.:Condens. Matter 29 465901 (2017);
         "P. Giannozzi et al., J. Chem. Phys. 152 154105 (2020);
          URL http://www.quantum-espresso.org", 
     in publications or presentations arising from this work. More details at
     http://www.quantum-espresso.org/quote

     Parallel version (MPI), running on     1 processors

     MPI processes distributed on     1 nodes
     4575 MiB available memory on the printing compute node when the environment starts

     Waiting for input...
     Reading input from standard input

     Current dimensions of program PWSCF are:
     Max number of different atomic species (ntypx) = 10
     Max number of k-points (npk) =  40000
     Max angular momentum in pseudopotentials (lmaxx) =  4
     file Ti.pbe-spn-rrkjus_psl.1.0.0.UPF: wavefunction(s)  3S 3D renormalized

     Subspace diagonalization in iterative solution of the eigenvalue problem:
     a serial algorithm will be used


     G-vector sticks info
     --------------------
     sticks:   dense  smooth     PW     G-vecs:    dense   smooth      PW
     Sum        2077    1041    305                71111    25269    4139

     Using Slab Decomposition



     bravais-lattice index     =            1
     lattice parameter (alat)  =       7.3700  a.u.
     unit-cell volume          =     400.3156 (a.u.)^3
     number of atoms/cell      =            3
     number of atomic types    =            2
     number of electrons       =        24.00
     number of Kohn-Sham states=           16
     kinetic-energy cutoff     =      60.0000  Ry
     charge density cutoff     =     480.0000  Ry
     scf convergence threshold =      1.0E-08
     mixing beta               =       0.7000
     number of iterations used =            8  plain     mixing
     Exchange-correlation= PBE
                           (   1   4   3   4   0   0   0)

     celldm(1)=   7.370000  celldm(2)=   0.000000  celldm(3)=   0.000000
     celldm(4)=   0.000000  celldm(5)=   0.000000  celldm(6)=   0.000000

     crystal axes: (cart. coord. in units of alat)
               a(1) = (   1.000000   0.000000   0.000000 )  
               a(2) = (   0.000000   1.000000   0.000000 )  
               a(3) = (   0.000000   0.000000   1.000000 )  

     reciprocal axes: (cart. coord. in units 2 pi/alat)
               b(1) = (  1.000000  0.000000  0.000000 )  
               b(2) = (  0.000000  1.000000  0.000000 )  
               b(3) = (  0.000000  0.000000  1.000000 )  


     PseudoPot. # 1 for Ti read from file:
     ../pseudo/Ti.pbe-spn-rrkjus_psl.1.0.0.UPF
     MD5 check sum: e281089c08e14b8efcf92e44a67ada65
     Pseudo is Ultrasoft + core correction, Zval = 12.0
     Generated using &quot;atomic&quot; code by A. Dal Corso  v.6.2.2
     Using radial grid of 1177 points,  6 beta functions with: 
                l(1) =   0
                l(2) =   0
                l(3) =   1
                l(4) =   1
                l(5) =   2
                l(6) =   2
     Q(r) pseudized with 0 coefficients 


     PseudoPot. # 2 for O  read from file:
     ../pseudo/O.pbe-n-rrkjus_psl.1.0.0.UPF
     MD5 check sum: 91400c9766925bcf19f520983a725ff0
     Pseudo is Ultrasoft + core correction, Zval =  6.0
     Generated using &quot;atomic&quot; code by A. Dal Corso  v.6.3MaX
     Using radial grid of 1095 points,  4 beta functions with: 
                l(1) =   0
                l(2) =   0
                l(3) =   1
                l(4) =   1
     Q(r) pseudized with 0 coefficients 


     atomic species   valence    mass     pseudopotential
        Ti            12.00    47.86700     Ti( 1.00)
        O              6.00    15.99900     O ( 1.00)

      4 Sym. Ops. (no inversion) found


                                    s                        frac. trans.

      isym =  1     identity                                     

 cryst.   s( 1) = (     1          0          0      )
                  (     0          1          0      )
                  (     0          0          1      )

 cart.    s( 1) = (  1.0000000  0.0000000  0.0000000 )
                  (  0.0000000  1.0000000  0.0000000 )
                  (  0.0000000  0.0000000  1.0000000 )


      isym =  2     180 deg rotation - cart. axis [0,1,0]        

 cryst.   s( 2) = (    -1          0          0      )
                  (     0          1          0      )
                  (     0          0         -1      )

 cart.    s( 2) = ( -1.0000000  0.0000000  0.0000000 )
                  (  0.0000000  1.0000000  0.0000000 )
                  (  0.0000000  0.0000000 -1.0000000 )


      isym =  3     inv. 180 deg rotation - cart. axis [0,0,1]   

 cryst.   s( 3) = (     1          0          0      )
                  (     0          1          0      )
                  (     0          0         -1      )

 cart.    s( 3) = (  1.0000000  0.0000000  0.0000000 )
                  (  0.0000000  1.0000000  0.0000000 )
                  (  0.0000000  0.0000000 -1.0000000 )


      isym =  4     inv. 180 deg rotation - cart. axis [1,0,0]   

 cryst.   s( 4) = (    -1          0          0      )
                  (     0          1          0      )
                  (     0          0          1      )

 cart.    s( 4) = ( -1.0000000  0.0000000  0.0000000 )
                  (  0.0000000  1.0000000  0.0000000 )
                  (  0.0000000  0.0000000  1.0000000 )


     point group C_2v (mm2) 
     there are  4 classes
     the character table:

       E     C2    s_v   s_v' 
A_1    1.00  1.00  1.00  1.00
A_2    1.00  1.00 -1.00 -1.00
B_1    1.00 -1.00  1.00 -1.00
B_2    1.00 -1.00 -1.00  1.00

     the symmetry operations in each class and the name of the first element:

     E        1
          identity                                               
     C2       2
          180 deg rotation - cart. axis [0,1,0]                  
     s_v      3
          inv. 180 deg rotation - cart. axis [0,0,1]             
     s_v'     4
          inv. 180 deg rotation - cart. axis [1,0,0]             

   Cartesian axes

     site n.     atom                  positions (alat units)
         1           Ti  tau(   1) = (   0.0000000   0.0000000   0.0000000  )
         2           O   tau(   2) = (   0.4987133   0.4987133   0.0000000  )
         3           O   tau(   3) = (  -0.4987133   0.4987133   0.0000000  )

   Crystallographic axes

     site n.     atom                  positions (cryst. coord.)
         1           Ti  tau(   1) = (  0.0000000  0.0000000  0.0000000  )
         2           O   tau(   2) = (  0.4987133  0.4987133  0.0000000  )
         3           O   tau(   3) = ( -0.4987133  0.4987133  0.0000000  )

     number of k points=    27  Methfessel-Paxton smearing, width (Ry)=  0.0100
                       cart. coord. in units 2pi/alat
        k(    1) = (   0.0000000   0.0000000   0.0000000), wk =   0.0312500
        k(    2) = (   0.0000000   0.0000000   0.2500000), wk =   0.0625000
        k(    3) = (   0.0000000   0.0000000  -0.5000000), wk =   0.0312500
        k(    4) = (   0.0000000   0.2500000   0.2500000), wk =   0.1250000
        k(    5) = (   0.0000000   0.2500000  -0.5000000), wk =   0.0625000
        k(    6) = (   0.0000000  -0.5000000  -0.5000000), wk =   0.0312500
        k(    7) = (   0.2500000   0.2500000   0.2500000), wk =   0.2500000
        k(    8) = (   0.2500000   0.2500000  -0.5000000), wk =   0.1250000
        k(    9) = (   0.2500000  -0.5000000  -0.5000000), wk =   0.0625000
        k(   10) = (  -0.5000000  -0.5000000  -0.5000000), wk =   0.0312500
        k(   11) = (   0.2500000   0.0000000   0.0000000), wk =   0.0625000
        k(   12) = (   0.0000000   0.2500000   0.0000000), wk =   0.0625000
        k(   13) = (  -0.5000000   0.0000000   0.0000000), wk =   0.0312500
        k(   14) = (   0.0000000  -0.5000000   0.0000000), wk =   0.0312500
        k(   15) = (   0.2500000   0.0000000  -0.2500000), wk =   0.1250000
        k(   16) = (   0.2500000  -0.2500000   0.0000000), wk =   0.1250000
        k(   17) = (   0.2500000   0.0000000   0.5000000), wk =   0.0625000
        k(   18) = (  -0.5000000  -0.2500000   0.0000000), wk =   0.0625000
        k(   19) = (   0.0000000  -0.5000000   0.2500000), wk =   0.0625000
        k(   20) = (   0.2500000  -0.5000000   0.0000000), wk =   0.0625000
        k(   21) = (  -0.5000000   0.0000000   0.2500000), wk =   0.0625000
        k(   22) = (  -0.5000000   0.0000000   0.5000000), wk =   0.0312500
        k(   23) = (  -0.5000000   0.5000000   0.0000000), wk =   0.0312500
        k(   24) = (  -0.5000000  -0.2500000   0.2500000), wk =   0.1250000
        k(   25) = (  -0.2500000  -0.5000000   0.2500000), wk =   0.1250000
        k(   26) = (  -0.5000000   0.2500000   0.5000000), wk =   0.0625000
        k(   27) = (  -0.5000000   0.5000000   0.2500000), wk =   0.0625000

                       cryst. coord.
        k(    1) = (   0.0000000   0.0000000   0.0000000), wk =   0.0312500
        k(    2) = (   0.0000000   0.0000000   0.2500000), wk =   0.0625000
        k(    3) = (   0.0000000   0.0000000  -0.5000000), wk =   0.0312500
        k(    4) = (   0.0000000   0.2500000   0.2500000), wk =   0.1250000
        k(    5) = (   0.0000000   0.2500000  -0.5000000), wk =   0.0625000
        k(    6) = (   0.0000000  -0.5000000  -0.5000000), wk =   0.0312500
        k(    7) = (   0.2500000   0.2500000   0.2500000), wk =   0.2500000
        k(    8) = (   0.2500000   0.2500000  -0.5000000), wk =   0.1250000
        k(    9) = (   0.2500000  -0.5000000  -0.5000000), wk =   0.0625000
        k(   10) = (  -0.5000000  -0.5000000  -0.5000000), wk =   0.0312500
        k(   11) = (   0.2500000   0.0000000   0.0000000), wk =   0.0625000
        k(   12) = (   0.0000000   0.2500000   0.0000000), wk =   0.0625000
        k(   13) = (  -0.5000000   0.0000000   0.0000000), wk =   0.0312500
        k(   14) = (   0.0000000  -0.5000000   0.0000000), wk =   0.0312500
        k(   15) = (   0.2500000   0.0000000  -0.2500000), wk =   0.1250000
        k(   16) = (   0.2500000  -0.2500000   0.0000000), wk =   0.1250000
        k(   17) = (   0.2500000   0.0000000   0.5000000), wk =   0.0625000
        k(   18) = (  -0.5000000  -0.2500000   0.0000000), wk =   0.0625000
        k(   19) = (   0.0000000  -0.5000000   0.2500000), wk =   0.0625000
        k(   20) = (   0.2500000  -0.5000000   0.0000000), wk =   0.0625000
        k(   21) = (  -0.5000000   0.0000000   0.2500000), wk =   0.0625000
        k(   22) = (  -0.5000000   0.0000000   0.5000000), wk =   0.0312500
        k(   23) = (  -0.5000000   0.5000000   0.0000000), wk =   0.0312500
        k(   24) = (  -0.5000000  -0.2500000   0.2500000), wk =   0.1250000
        k(   25) = (  -0.2500000  -0.5000000   0.2500000), wk =   0.1250000
        k(   26) = (  -0.5000000   0.2500000   0.5000000), wk =   0.0625000
        k(   27) = (  -0.5000000   0.5000000   0.2500000), wk =   0.0625000

     Dense  grid:    71111 G-vectors     FFT dimensions: (  54,  54,  54)

     Smooth grid:    25269 G-vectors     FFT dimensions: (  40,  40,  40)

     Dynamical RAM for                 wfc:       0.77 MB

     Dynamical RAM for     wfc (w. buffer):      21.48 MB

     Dynamical RAM for           str. fact:       2.17 MB

     Dynamical RAM for           local pot:       0.00 MB

     Dynamical RAM for          nlocal pot:       1.63 MB

     Dynamical RAM for                qrad:       3.52 MB

     Dynamical RAM for          rho,v,vnew:       6.86 MB

     Dynamical RAM for               rhoin:       2.29 MB

     Dynamical RAM for            rho*nmix:      17.36 MB

     Dynamical RAM for           G-vectors:       4.26 MB

     Dynamical RAM for          h,s,v(r/c):       0.05 MB

     Dynamical RAM for          <psi|beta>:       0.01 MB

     Dynamical RAM for                 psi:       1.53 MB

     Dynamical RAM for                hpsi:       1.53 MB

     Dynamical RAM for                spsi:       1.53 MB

     Dynamical RAM for      wfcinit/wfcrot:       1.73 MB

     Dynamical RAM for           addusdens:     203.99 MB

     Estimated static dynamical RAM per process >      51.46 MB

     Estimated max dynamical RAM per process >     272.82 MB

     Check: negative core charge=   -0.000002

     Initial potential from superposition of free atoms

     starting charge      23.9985, renormalised to      24.0000
     Starting wfcs are   18 randomized atomic wfcs

     total cpu time spent up to now is        2.0 secs

     Self-consistent Calculation

     iteration #  1     ecut=    60.00 Ry     beta= 0.70
     Davidson diagonalization with overlap

---- Real-time Memory Report at c_bands before calling an iterative solver
           262 MiB given to the printing process from OS
             0 MiB allocation reported by mallinfo(arena+hblkhd)
          4513 MiB available memory on the node where the printing process lives
------------------
     ethr =  1.00E-02,  avg # of iterations =  5.9

     total cpu time spent up to now is        5.4 secs

     total energy              =    3529.18962839 Ry
     estimated scf accuracy    <       7.45829716 Ry

     iteration #  2     ecut=    60.00 Ry     beta= 0.70
     Davidson diagonalization with overlap

---- Real-time Memory Report at c_bands before calling an iterative solver
           297 MiB given to the printing process from OS
             0 MiB allocation reported by mallinfo(arena+hblkhd)
          4489 MiB available memory on the node where the printing process lives
------------------
     ethr =  1.00E-02,  avg # of iterations =  5.6

     total cpu time spent up to now is        9.1 secs

     total energy              =    3526.43045618 Ry
     estimated scf accuracy    <       9.55157297 Ry

     iteration #  3     ecut=    60.00 Ry     beta= 0.70
     Davidson diagonalization with overlap

---- Real-time Memory Report at c_bands before calling an iterative solver
           298 MiB given to the printing process from OS
             0 MiB allocation reported by mallinfo(arena+hblkhd)
          4488 MiB available memory on the node where the printing process lives
------------------
     ethr =  1.00E-02,  avg # of iterations =  3.0

     total cpu time spent up to now is       11.6 secs

     total energy              =    3526.86552411 Ry
     estimated scf accuracy    <       1.69882179 Ry

     iteration #  4     ecut=    60.00 Ry     beta= 0.70
     Davidson diagonalization with overlap

---- Real-time Memory Report at c_bands before calling an iterative solver
           302 MiB given to the printing process from OS
             0 MiB allocation reported by mallinfo(arena+hblkhd)
          4484 MiB available memory on the node where the printing process lives
------------------
     ethr =  7.08E-03,  avg # of iterations =  6.2

     total cpu time spent up to now is       15.3 secs

     total energy              =    3527.66838469 Ry
     estimated scf accuracy    <      16.26616724 Ry

     iteration #  5     ecut=    60.00 Ry     beta= 0.70
     Davidson diagonalization with overlap

---- Real-time Memory Report at c_bands before calling an iterative solver
           303 MiB given to the printing process from OS
             0 MiB allocation reported by mallinfo(arena+hblkhd)
          4482 MiB available memory on the node where the printing process lives
------------------
     ethr =  7.08E-03,  avg # of iterations =  3.3

     total cpu time spent up to now is       17.8 secs

     total energy              =    3525.85610224 Ry
     estimated scf accuracy    <       0.06112198 Ry

     iteration #  6     ecut=    60.00 Ry     beta= 0.70
     Davidson diagonalization with overlap

---- Real-time Memory Report at c_bands before calling an iterative solver
           304 MiB given to the printing process from OS
             0 MiB allocation reported by mallinfo(arena+hblkhd)
          4481 MiB available memory on the node where the printing process lives
------------------
     ethr =  2.55E-04,  avg # of iterations =  7.0

     total cpu time spent up to now is       21.2 secs

     total energy              =    3525.96092374 Ry
     estimated scf accuracy    <       0.56407315 Ry

     iteration #  7     ecut=    60.00 Ry     beta= 0.70
     Davidson diagonalization with overlap

---- Real-time Memory Report at c_bands before calling an iterative solver
           305 MiB given to the printing process from OS
             0 MiB allocation reported by mallinfo(arena+hblkhd)
          4480 MiB available memory on the node where the printing process lives
------------------
     ethr =  2.55E-04,  avg # of iterations =  6.8

     total cpu time spent up to now is       24.5 secs

     total energy              =    3525.87366571 Ry
     estimated scf accuracy    <       0.07311862 Ry

     iteration #  8     ecut=    60.00 Ry     beta= 0.70
     Davidson diagonalization with overlap

---- Real-time Memory Report at c_bands before calling an iterative solver
           306 MiB given to the printing process from OS
             0 MiB allocation reported by mallinfo(arena+hblkhd)
          4479 MiB available memory on the node where the printing process lives
------------------
     ethr =  2.55E-04,  avg # of iterations =  2.3

     total cpu time spent up to now is       26.5 secs

     total energy              =    3525.86522701 Ry
     estimated scf accuracy    <       0.00930977 Ry

     iteration #  9     ecut=    60.00 Ry     beta= 0.70
     Davidson diagonalization with overlap

---- Real-time Memory Report at c_bands before calling an iterative solver
           306 MiB given to the printing process from OS
             0 MiB allocation reported by mallinfo(arena+hblkhd)
          4480 MiB available memory on the node where the printing process lives
------------------
     ethr =  3.88E-05,  avg # of iterations =  3.7

     total cpu time spent up to now is       28.8 secs

     total energy              =    3525.86555381 Ry
     estimated scf accuracy    <       0.00436690 Ry

     iteration # 10     ecut=    60.00 Ry     beta= 0.70
     Davidson diagonalization with overlap

---- Real-time Memory Report at c_bands before calling an iterative solver
           307 MiB given to the printing process from OS
             0 MiB allocation reported by mallinfo(arena+hblkhd)
          4478 MiB available memory on the node where the printing process lives
------------------
     ethr =  1.82E-05,  avg # of iterations =  3.0

     total cpu time spent up to now is       31.2 secs

     total energy              =    3525.86542584 Ry
     estimated scf accuracy    <       0.00111026 Ry

     iteration # 11     ecut=    60.00 Ry     beta= 0.70
     Davidson diagonalization with overlap

---- Real-time Memory Report at c_bands before calling an iterative solver
           307 MiB given to the printing process from OS
             0 MiB allocation reported by mallinfo(arena+hblkhd)
          4478 MiB available memory on the node where the printing process lives
------------------
     ethr =  4.63E-06,  avg # of iterations =  3.9

     total cpu time spent up to now is       33.6 secs

     total energy              =    3525.86544917 Ry
     estimated scf accuracy    <       0.00065308 Ry

     iteration # 12     ecut=    60.00 Ry     beta= 0.70
     Davidson diagonalization with overlap

---- Real-time Memory Report at c_bands before calling an iterative solver
           307 MiB given to the printing process from OS
             0 MiB allocation reported by mallinfo(arena+hblkhd)
          4478 MiB available memory on the node where the printing process lives
------------------
     ethr =  2.72E-06,  avg # of iterations =  2.4

     total cpu time spent up to now is       35.8 secs

     total energy              =    3525.86554105 Ry
     estimated scf accuracy    <       0.00036059 Ry

     iteration # 13     ecut=    60.00 Ry     beta= 0.70
     Davidson diagonalization with overlap

---- Real-time Memory Report at c_bands before calling an iterative solver
           307 MiB given to the printing process from OS
             0 MiB allocation reported by mallinfo(arena+hblkhd)
          4478 MiB available memory on the node where the printing process lives
------------------
     ethr =  1.50E-06,  avg # of iterations =  2.7

     total cpu time spent up to now is       38.2 secs

     total energy              =    3525.86548646 Ry
     estimated scf accuracy    <       0.00000285 Ry

     iteration # 14     ecut=    60.00 Ry     beta= 0.70
     Davidson diagonalization with overlap

---- Real-time Memory Report at c_bands before calling an iterative solver
           307 MiB given to the printing process from OS
             0 MiB allocation reported by mallinfo(arena+hblkhd)
          4479 MiB available memory on the node where the printing process lives
------------------
     c_bands:  1 eigenvalues not converged
     c_bands:  1 eigenvalues not converged
     ethr =  1.19E-08,  avg # of iterations =  9.1

     total cpu time spent up to now is       41.7 secs

     total energy              =    3525.86547850 Ry
     estimated scf accuracy    <       0.00000441 Ry

     iteration # 15     ecut=    60.00 Ry     beta= 0.70
     Davidson diagonalization with overlap

---- Real-time Memory Report at c_bands before calling an iterative solver
           307 MiB given to the printing process from OS
             0 MiB allocation reported by mallinfo(arena+hblkhd)
          4478 MiB available memory on the node where the printing process lives
------------------
     ethr =  1.19E-08,  avg # of iterations =  2.3

     total cpu time spent up to now is       44.0 secs

     total energy              =    3525.86547844 Ry
     estimated scf accuracy    <       0.00000050 Ry

     iteration # 16     ecut=    60.00 Ry     beta= 0.70
     Davidson diagonalization with overlap

---- Real-time Memory Report at c_bands before calling an iterative solver
           307 MiB given to the printing process from OS
             0 MiB allocation reported by mallinfo(arena+hblkhd)
          4478 MiB available memory on the node where the printing process lives
------------------
     ethr =  2.08E-09,  avg # of iterations =  6.0

     total cpu time spent up to now is       46.8 secs

     total energy              =    3525.86547829 Ry
     estimated scf accuracy    <       0.00000093 Ry

     iteration # 17     ecut=    60.00 Ry     beta= 0.70
     Davidson diagonalization with overlap

---- Real-time Memory Report at c_bands before calling an iterative solver
           307 MiB given to the printing process from OS
             0 MiB allocation reported by mallinfo(arena+hblkhd)
          4478 MiB available memory on the node where the printing process lives
------------------
     ethr =  2.08E-09,  avg # of iterations =  1.9

     total cpu time spent up to now is       48.9 secs

     total energy              =    3525.86547825 Ry
     estimated scf accuracy    <       0.00000010 Ry

     iteration # 18     ecut=    60.00 Ry     beta= 0.70
     Davidson diagonalization with overlap

---- Real-time Memory Report at c_bands before calling an iterative solver
           307 MiB given to the printing process from OS
             0 MiB allocation reported by mallinfo(arena+hblkhd)
          4478 MiB available memory on the node where the printing process lives
------------------
     ethr =  4.31E-10,  avg # of iterations =  5.5

     total cpu time spent up to now is       51.5 secs

     End of self-consistent calculation

          k = 0.0000 0.0000 0.0000 (  3119 PWs)   bands (ev):

   -86.6221 -86.5734 -86.5643 -50.4217 -32.2347 -26.9505 -26.5552 -26.5550
     3.0144   5.5546   6.4184   6.6861   6.6916   6.7211   7.1303   7.7505

     occupation numbers 
     1.0000   1.0000   1.0000   1.0000   1.0000   1.0000   1.0000   1.0000
     1.0000   1.0000   1.0052   0.6312   0.5981   0.4156  -0.0001  -0.0000

          k = 0.0000 0.0000 0.2500 (  3118 PWs)   bands (ev):

   -86.6249 -86.5719 -86.5627 -50.4214 -32.2311 -26.9574 -26.5546 -26.5544
     3.1318   5.3094   5.6673   6.7423   6.8704   6.8714   7.5928   7.5931

     occupation numbers 
     1.0000   1.0000   1.0000   1.0000   1.0000   1.0000   1.0000   1.0000
     1.0000   1.0000   1.0000   0.2912  -0.0353  -0.0354  -0.0000  -0.0000

          k = 0.0000 0.0000-0.5000 (  3178 PWs)   bands (ev):

   -86.6361 -86.5789 -86.5697 -50.4211 -32.2306 -26.9643 -26.5541 -26.5539
     3.2084   4.6858   5.7865   6.7707   7.2440   7.2445   7.2547   7.2549

     occupation numbers 
     1.0000   1.0000   1.0000   1.0000   1.0000   1.0000   1.0000   1.0000
     1.0000   1.0000   1.0000   0.1500  -0.0000  -0.0000  -0.0000  -0.0000

          k = 0.0000 0.2500 0.2500 (  3129 PWs)   bands (ev):

   -86.6244 -86.5757 -86.5641 -50.4207 -32.2345 -26.9567 -26.5539 -26.5514
     2.8800   4.4235   5.4358   6.1245   7.0292   7.5978   8.2623   8.6208

     occupation numbers 
     1.0000   1.0000   1.0000   1.0000   1.0000   1.0000   1.0000   1.0000
     1.0000   1.0000   1.0000   1.0000  -0.0021  -0.0000  -0.0000  -0.0000

          k = 0.0000 0.2500-0.5000 (  3134 PWs)   bands (ev):

   -86.6262 -86.5756 -86.5646 -50.4204 -32.2312 -26.9636 -26.5534 -26.5508
     3.4687   3.5378   5.5565   6.1691   7.1214   7.4009   8.4670   8.9235

     occupation numbers 
     1.0000   1.0000   1.0000   1.0000   1.0000   1.0000   1.0000   1.0000
     1.0000   1.0000   1.0000   1.0000  -0.0001  -0.0000  -0.0000  -0.0000

          k = 0.0000-0.5000-0.5000 (  3168 PWs)   bands (ev):

   -86.6302 -86.5815 -86.5697 -50.4198 -32.2361 -26.9629 -26.5527 -26.5478
     2.7812   3.7927   5.0583   6.9956   7.5750   7.7109   8.0974   8.6489

     occupation numbers 
     1.0000   1.0000   1.0000   1.0000   1.0000   1.0000   1.0000   1.0000
     1.0000   1.0000   1.0000  -0.0054  -0.0000  -0.0000  -0.0000  -0.0000

          k = 0.2500 0.2500 0.2500 (  3133 PWs)   bands (ev):

   -86.6244 -86.5758 -86.5662 -50.4202 -32.2315 -26.9561 -26.5632 -26.5508
     3.0456   4.4632   4.8161   6.4842   7.0719   7.2377   8.3731   8.4545

     occupation numbers 
     1.0000   1.0000   1.0000   1.0000   1.0000   1.0000   1.0000   1.0000
     1.0000   1.0000   1.0000   1.0212  -0.0005  -0.0000  -0.0000  -0.0000

          k = 0.2500 0.2500-0.5000 (  3140 PWs)   bands (ev):

   -86.6254 -86.5766 -86.5675 -50.4199 -32.2284 -26.9629 -26.5626 -26.5502
     3.6287   3.8059   4.8030   6.5104   6.6096   8.0142   8.4509   8.4560

     occupation numbers 
     1.0000   1.0000   1.0000   1.0000   1.0000   1.0000   1.0000   1.0000
     1.0000   1.0000   1.0000   1.0299   0.9664  -0.0000  -0.0000  -0.0000

          k = 0.2500-0.5000-0.5000 (  3136 PWs)   bands (ev):

   -86.6259 -86.5772 -86.5651 -50.4194 -32.2251 -26.9621 -26.5619 -26.5594
     3.4098   4.2752   4.6998   6.3475   7.2086   7.6439   7.9813   8.7293

     occupation numbers 
     1.0000   1.0000   1.0000   1.0000   1.0000   1.0000   1.0000   1.0000
     1.0000   1.0000   1.0000   1.0006  -0.0000  -0.0000  -0.0000  -0.0000

          k =-0.5000-0.5000-0.5000 (  3112 PWs)   bands (ev):

   -86.6216 -86.5730 -86.5638 -50.4190 -32.2146 -26.9614 -26.5712 -26.5710
     4.3964   4.3964   5.3785   6.0426   6.0434   6.8245   7.2595   9.2899

     occupation numbers 
     1.0000   1.0000   1.0000   1.0000   1.0000   1.0000   1.0000   1.0000
     1.0000   1.0000   1.0000   1.0000   1.0000  -0.0038  -0.0000  -0.0000

          k = 0.2500 0.0000 0.0000 (  3118 PWs)   bands (ev):

   -86.6206 -86.5719 -86.5671 -50.4211 -32.2374 -26.9499 -26.5543 -26.5522
     2.5776   5.1432   5.3262   6.5604   6.5682   7.8368   8.0329   8.7268

     occupation numbers 
     1.0000   1.0000   1.0000   1.0000   1.0000   1.0000   1.0000   1.0000
     1.0000   1.0000   1.0000   1.0316   1.0274  -0.0000  -0.0000  -0.0000

          k = 0.0000 0.2500 0.0000 (  3118 PWs)   bands (ev):

   -86.6206 -86.5763 -86.5627 -50.4211 -32.2375 -26.9499 -26.5545 -26.5520
     2.5774   5.1446   5.3261   6.5603   6.5683   7.8366   8.0321   8.7273

     occupation numbers 
     1.0000   1.0000   1.0000   1.0000   1.0000   1.0000   1.0000   1.0000
     1.0000   1.0000   1.0000   1.0317   1.0273  -0.0000  -0.0000  -0.0000

          k =-0.5000 0.0000 0.0000 (  3178 PWs)   bands (ev):

   -86.6275 -86.5788 -86.5782 -50.4205 -32.2431 -26.9493 -26.5536 -26.5491
     2.0647   4.8428   5.8318   6.2844   6.5760   7.9275   8.1944   9.9002

     occupation numbers 
     1.0000   1.0000   1.0000   1.0000   1.0000   1.0000   1.0000   1.0000
     1.0000   1.0000   1.0000   1.0001   1.0213  -0.0000  -0.0000  -0.0000

          k = 0.0000-0.5000 0.0000 (  3178 PWs)   bands (ev):

   -86.6275 -86.5874 -86.5696 -50.4205 -32.2434 -26.9493 -26.5538 -26.5490
     2.0646   4.8427   5.8337   6.2845   6.5759   7.9274   8.1945   9.9002

     occupation numbers 
     1.0000   1.0000   1.0000   1.0000   1.0000   1.0000   1.0000   1.0000
     1.0000   1.0000   1.0000   1.0001   1.0213  -0.0000  -0.0000  -0.0000

          k = 0.2500 0.0000-0.2500 (  3129 PWs)   bands (ev):

   -86.6244 -86.5733 -86.5665 -50.4207 -32.2344 -26.9567 -26.5537 -26.5516
     2.8802   4.4232   5.4359   6.1239   7.0290   7.5981   8.2621   8.6206

     occupation numbers 
     1.0000   1.0000   1.0000   1.0000   1.0000   1.0000   1.0000   1.0000
     1.0000   1.0000   1.0000   1.0000  -0.0021  -0.0000  -0.0000  -0.0000

          k = 0.2500-0.2500 0.0000 (  3129 PWs)   bands (ev):

   -86.6220 -86.5758 -86.5664 -50.4206 -32.2347 -26.9492 -26.5638 -26.5513
     2.7470   4.2152   5.8484   6.6645   6.7337   7.4656   8.2645   8.7692

     occupation numbers 
     1.0000   1.0000   1.0000   1.0000   1.0000   1.0000   1.0000   1.0000
     1.0000   1.0000   1.0000   0.7531   0.3403  -0.0000  -0.0000  -0.0000

          k = 0.2500 0.0000 0.5000 (  3134 PWs)   bands (ev):

   -86.6262 -86.5737 -86.5665 -50.4204 -32.2312 -26.9636 -26.5532 -26.5510
     3.4687   3.5380   5.5566   6.1681   7.1207   7.4012   8.4669   8.9229

     occupation numbers 
     1.0000   1.0000   1.0000   1.0000   1.0000   1.0000   1.0000   1.0000
     1.0000   1.0000   1.0000   1.0000  -0.0001  -0.0000  -0.0000  -0.0000

          k =-0.5000-0.2500 0.0000 (  3134 PWs)   bands (ev):

   -86.6224 -86.5756 -86.5683 -50.4201 -32.2316 -26.9486 -26.5630 -26.5608
     2.6806   4.0976   6.3725   6.6221   6.6788   7.5028   8.1285   9.0742

     occupation numbers 
     1.0000   1.0000   1.0000   1.0000   1.0000   1.0000   1.0000   1.0000
     1.0000   1.0000   1.0014   0.9319   0.6741  -0.0000  -0.0000  -0.0000

          k = 0.0000-0.5000 0.2500 (  3134 PWs)   bands (ev):

   -86.6243 -86.5774 -86.5646 -50.4201 -32.2376 -26.9561 -26.5532 -26.5483
     2.3874   4.4672   4.9473   6.7995   7.3027   7.7395   8.1974   8.9259

     occupation numbers 
     1.0000   1.0000   1.0000   1.0000   1.0000   1.0000   1.0000   1.0000
     1.0000   1.0000   1.0000   0.0487  -0.0000  -0.0000  -0.0000  -0.0000

          k = 0.2500-0.5000 0.0000 (  3134 PWs)   bands (ev):

   -86.6224 -86.5775 -86.5665 -50.4201 -32.2317 -26.9486 -26.5632 -26.5606
     2.6805   4.0978   6.3731   6.6220   6.6788   7.5031   8.1287   9.0741

     occupation numbers 
     1.0000   1.0000   1.0000   1.0000   1.0000   1.0000   1.0000   1.0000
     1.0000   1.0000   1.0014   0.9322   0.6741  -0.0000  -0.0000  -0.0000

          k =-0.5000 0.0000 0.2500 (  3134 PWs)   bands (ev):

   -86.6243 -86.5737 -86.5683 -50.4201 -32.2375 -26.9561 -26.5530 -26.5485
     2.3875   4.4669   4.9473   6.7992   7.3012   7.7396   8.1973   8.9263

     occupation numbers 
     1.0000   1.0000   1.0000   1.0000   1.0000   1.0000   1.0000   1.0000
     1.0000   1.0000   1.0000   0.0494  -0.0000  -0.0000  -0.0000  -0.0000

          k =-0.5000 0.0000 0.5000 (  3168 PWs)   bands (ev):

   -86.6302 -86.5789 -86.5723 -50.4198 -32.2360 -26.9629 -26.5525 -26.5479
     2.7813   3.7926   5.0584   6.9944   7.5751   7.7092   8.0973   8.6488

     occupation numbers 
     1.0000   1.0000   1.0000   1.0000   1.0000   1.0000   1.0000   1.0000
     1.0000   1.0000   1.0000  -0.0055  -0.0000  -0.0000  -0.0000  -0.0000

          k =-0.5000 0.5000 0.0000 (  3168 PWs)   bands (ev):

   -86.6276 -86.5816 -86.5724 -50.4197 -32.2241 -26.9480 -26.5725 -26.5724
     3.6519   3.6519   6.5414   6.5456   7.1840   7.1844   7.1977   8.5317

     occupation numbers 
     1.0000   1.0000   1.0000   1.0000   1.0000   1.0000   1.0000   1.0000
     1.0000   1.0000   1.0355   1.0353  -0.0000  -0.0000  -0.0000  -0.0000

          k =-0.5000-0.2500 0.2500 (  3140 PWs)   bands (ev):

   -86.6253 -86.5766 -86.5675 -50.4197 -32.2287 -26.9554 -26.5624 -26.5602
     3.0005   4.2597   5.1695   6.7766   7.0898   7.4180   8.0948   8.1841

     occupation numbers 
     1.0000   1.0000   1.0000   1.0000   1.0000   1.0000   1.0000   1.0000
     1.0000   1.0000   1.0000   0.1256  -0.0003  -0.0000  -0.0000  -0.0000

          k =-0.2500-0.5000 0.2500 (  3140 PWs)   bands (ev):

   -86.6253 -86.5767 -86.5675 -50.4197 -32.2287 -26.9554 -26.5626 -26.5600
     3.0005   4.2599   5.1694   6.7770   7.0903   7.4180   8.0944   8.1843

     occupation numbers 
     1.0000   1.0000   1.0000   1.0000   1.0000   1.0000   1.0000   1.0000
     1.0000   1.0000   1.0000   0.1240  -0.0003  -0.0000  -0.0000  -0.0000

          k =-0.5000 0.2500 0.5000 (  3136 PWs)   bands (ev):

   -86.6259 -86.5742 -86.5680 -50.4194 -32.2250 -26.9621 -26.5618 -26.5595
     3.4099   4.2753   4.6998   6.3467   7.2081   7.6444   7.9811   8.6277

     occupation numbers 
     1.0000   1.0000   1.0000   1.0000   1.0000   1.0000   1.0000   1.0000
     1.0000   1.0000   1.0000   1.0006  -0.0000  -0.0000  -0.0000  -0.0000

          k =-0.5000 0.5000 0.2500 (  3136 PWs)   bands (ev):

   -86.6229 -86.5772 -86.5680 -50.4193 -32.2191 -26.9547 -26.5719 -26.5717
     3.9473   3.9473   6.0987   6.6943   6.6949   6.9560   7.2238   7.3539

     occupation numbers 
     1.0000   1.0000   1.0000   1.0000   1.0000   1.0000   1.0000   1.0000
     1.0000   1.0000   1.0000   0.5816   0.5778  -0.0134  -0.0000  -0.0000

     the Fermi energy is     6.7075 ev

!    total energy              =    3525.86547824 Ry
     estimated scf accuracy    <          7.8E-09 Ry
     smearing contrib. (-TS)   =      -0.00046191 Ry
     internal energy E=F+TS    =    3525.86594014 Ry

     The total energy is F=E-TS. E is the sum of the following terms:
     one-electron contribution =    -183.74288810 Ry
     hartree contribution      =      82.56123968 Ry
     xc contribution           =     -35.70773423 Ry
     ewald contribution        =    3662.75532279 Ry

     convergence has been achieved in  18 iterations

     Writing all to output data dir ./tmp/tio2_ecut60.save/

     init_run     :      1.82s CPU      1.88s WALL (       1 calls)
     electrons    :     46.01s CPU     49.51s WALL (       1 calls)

     Called by init_run:
     wfcinit      :      0.87s CPU      0.87s WALL (       1 calls)
     wfcinit:atom :      0.02s CPU      0.02s WALL (      27 calls)
     wfcinit:wfcr :      0.79s CPU      0.79s WALL (      27 calls)
     potinit      :      0.39s CPU      0.39s WALL (       1 calls)
     hinit0       :      0.45s CPU      0.45s WALL (       1 calls)

     Called by electrons:
     c_bands      :     36.72s CPU     36.93s WALL (      18 calls)
     sum_band     :      6.27s CPU      8.56s WALL (      18 calls)
     v_of_rho     :      1.06s CPU      1.11s WALL (      19 calls)
     v_h          :      0.05s CPU      0.05s WALL (      19 calls)
     v_xc         :      1.01s CPU      1.07s WALL (      19 calls)
     newd         :      1.95s CPU      2.94s WALL (      19 calls)
     mix_rho      :      0.12s CPU      0.12s WALL (      18 calls)

     Called by c_bands:
     init_us_2    :      0.62s CPU      0.64s WALL (     999 calls)
     init_us_2:cp :      0.62s CPU      0.64s WALL (     999 calls)
     cegterg      :     35.39s CPU     35.60s WALL (     486 calls)

     Called by sum_band:
     sum_band:wei :      0.01s CPU      0.01s WALL (      18 calls)
     sum_band:loo :      3.89s CPU      3.97s WALL (      18 calls)
     sum_band:buf :      0.04s CPU      0.04s WALL (     486 calls)
     sum_band:ini :      0.29s CPU      0.32s WALL (     486 calls)
     sum_band:cal :      1.08s CPU      1.08s WALL (     486 calls)
     sum_band:bec :      0.01s CPU      0.01s WALL (     486 calls)
     addusdens    :      2.28s CPU      4.49s WALL (      18 calls)
                                        0.00s GPU  (      18 calls)
     addusd:skk   :      0.01s CPU      0.01s WALL (      36 calls)
                                        0.00s GPU  (      36 calls)

     Called by *egterg:
     cdiaghg      :      0.57s CPU      0.58s WALL (    2659 calls)
     cegterg:over :      3.33s CPU      3.33s WALL (    2173 calls)
     cegterg:upda :      2.13s CPU      2.13s WALL (    2173 calls)
     cegterg:last :      5.31s CPU      5.36s WALL (    1192 calls)
     h_psi        :     20.13s CPU     20.25s WALL (    2686 calls)
     s_psi        :      3.16s CPU      3.17s WALL (    2686 calls)
     g_psi        :      0.14s CPU      0.14s WALL (    2173 calls)

     Called by h_psi:
     h_psi:calbec :      3.23s CPU      3.24s WALL (    2686 calls)
     vloc_psi     :     13.65s CPU     13.74s WALL (    2686 calls)
     add_vuspsi   :      3.15s CPU      3.16s WALL (    2686 calls)

     General routines
     calbec       :      4.30s CPU      4.32s WALL (    3172 calls)
     fft          :      0.45s CPU      0.45s WALL (     245 calls)
     ffts         :      0.24s CPU      0.25s WALL (      37 calls)
     fftw         :     11.69s CPU     11.81s WALL (   52586 calls)
     interpolate  :      0.27s CPU      0.27s WALL (      19 calls)

     Parallel routines

     PWSCF        :     47.95s CPU     51.54s WALL


   This run was terminated on:  21:24: 5  17Jul2025            

=------------------------------------------------------------------------------=
   JOB DONE.
=------------------------------------------------------------------------------=
