
     Program PWSCF v.7.2 starts on 17Jul2025 at 20:12:36 

     This program is part of the open-source Quantum ESPRESSO suite
     for quantum simulation of materials; please cite
         "P. Giannozzi et al., J. Phys.:Condens. Matter 21 395502 (2009);
         "P. Giannozzi et al., J. Phys.:Condens. Matter 29 465901 (2017);
         "P. Giannozzi et al., J. Chem. Phys. 152 154105 (2020);
          URL http://www.quantum-espresso.org", 
     in publications or presentations arising from this work. More details at
     http://www.quantum-espresso.org/quote

     Parallel version (MPI), running on     1 processors

     MPI processes distributed on     1 nodes
     4635 MiB available memory on the printing compute node when the environment starts

     Waiting for input...
     Reading input from standard input

     Current dimensions of program PWSCF are:
     Max number of different atomic species (ntypx) = 10
     Max number of k-points (npk) =  40000
     Max angular momentum in pseudopotentials (lmaxx) =  4
     file Ti.pbe-spn-rrkjus_psl.1.0.0.UPF: wavefunction(s)  3S 3D renormalized

     Subspace diagonalization in iterative solution of the eigenvalue problem:
     a serial algorithm will be used


     G-vector sticks info
     --------------------
     sticks:   dense  smooth     PW     G-vecs:    dense   smooth      PW
     Sum        1369     681    221                38641    13613    2373

     Using Slab Decomposition



     bravais-lattice index     =            1
     lattice parameter (alat)  =       7.3700  a.u.
     unit-cell volume          =     400.3156 (a.u.)^3
     number of atoms/cell      =            3
     number of atomic types    =            2
     number of electrons       =        24.00
     number of Kohn-Sham states=           16
     kinetic-energy cutoff     =      40.0000  Ry
     charge density cutoff     =     320.0000  Ry
     scf convergence threshold =      1.0E-08
     mixing beta               =       0.7000
     number of iterations used =            8  plain     mixing
     Exchange-correlation= PBE
                           (   1   4   3   4   0   0   0)

     celldm(1)=   7.370000  celldm(2)=   0.000000  celldm(3)=   0.000000
     celldm(4)=   0.000000  celldm(5)=   0.000000  celldm(6)=   0.000000

     crystal axes: (cart. coord. in units of alat)
               a(1) = (   1.000000   0.000000   0.000000 )  
               a(2) = (   0.000000   1.000000   0.000000 )  
               a(3) = (   0.000000   0.000000   1.000000 )  

     reciprocal axes: (cart. coord. in units 2 pi/alat)
               b(1) = (  1.000000  0.000000  0.000000 )  
               b(2) = (  0.000000  1.000000  0.000000 )  
               b(3) = (  0.000000  0.000000  1.000000 )  


     PseudoPot. # 1 for Ti read from file:
     ../pseudo/Ti.pbe-spn-rrkjus_psl.1.0.0.UPF
     MD5 check sum: e281089c08e14b8efcf92e44a67ada65
     Pseudo is Ultrasoft + core correction, Zval = 12.0
     Generated using &quot;atomic&quot; code by A. Dal Corso  v.6.2.2
     Using radial grid of 1177 points,  6 beta functions with: 
                l(1) =   0
                l(2) =   0
                l(3) =   1
                l(4) =   1
                l(5) =   2
                l(6) =   2
     Q(r) pseudized with 0 coefficients 


     PseudoPot. # 2 for O  read from file:
     ../pseudo/O.pbe-n-rrkjus_psl.1.0.0.UPF
     MD5 check sum: 91400c9766925bcf19f520983a725ff0
     Pseudo is Ultrasoft + core correction, Zval =  6.0
     Generated using &quot;atomic&quot; code by A. Dal Corso  v.6.3MaX
     Using radial grid of 1095 points,  4 beta functions with: 
                l(1) =   0
                l(2) =   0
                l(3) =   1
                l(4) =   1
     Q(r) pseudized with 0 coefficients 


     atomic species   valence    mass     pseudopotential
        Ti            12.00    47.86700     Ti( 1.00)
        O              6.00    15.99900     O ( 1.00)

      4 Sym. Ops. (no inversion) found


                                    s                        frac. trans.

      isym =  1     identity                                     

 cryst.   s( 1) = (     1          0          0      )
                  (     0          1          0      )
                  (     0          0          1      )

 cart.    s( 1) = (  1.0000000  0.0000000  0.0000000 )
                  (  0.0000000  1.0000000  0.0000000 )
                  (  0.0000000  0.0000000  1.0000000 )


      isym =  2     180 deg rotation - cart. axis [0,1,0]        

 cryst.   s( 2) = (    -1          0          0      )
                  (     0          1          0      )
                  (     0          0         -1      )

 cart.    s( 2) = ( -1.0000000  0.0000000  0.0000000 )
                  (  0.0000000  1.0000000  0.0000000 )
                  (  0.0000000  0.0000000 -1.0000000 )


      isym =  3     inv. 180 deg rotation - cart. axis [0,0,1]   

 cryst.   s( 3) = (     1          0          0      )
                  (     0          1          0      )
                  (     0          0         -1      )

 cart.    s( 3) = (  1.0000000  0.0000000  0.0000000 )
                  (  0.0000000  1.0000000  0.0000000 )
                  (  0.0000000  0.0000000 -1.0000000 )


      isym =  4     inv. 180 deg rotation - cart. axis [1,0,0]   

 cryst.   s( 4) = (    -1          0          0      )
                  (     0          1          0      )
                  (     0          0          1      )

 cart.    s( 4) = ( -1.0000000  0.0000000  0.0000000 )
                  (  0.0000000  1.0000000  0.0000000 )
                  (  0.0000000  0.0000000  1.0000000 )


     point group C_2v (mm2) 
     there are  4 classes
     the character table:

       E     C2    s_v   s_v' 
A_1    1.00  1.00  1.00  1.00
A_2    1.00  1.00 -1.00 -1.00
B_1    1.00 -1.00  1.00 -1.00
B_2    1.00 -1.00 -1.00  1.00

     the symmetry operations in each class and the name of the first element:

     E        1
          identity                                               
     C2       2
          180 deg rotation - cart. axis [0,1,0]                  
     s_v      3
          inv. 180 deg rotation - cart. axis [0,0,1]             
     s_v'     4
          inv. 180 deg rotation - cart. axis [1,0,0]             

   Cartesian axes

     site n.     atom                  positions (alat units)
         1           Ti  tau(   1) = (   0.0000000   0.0000000   0.0000000  )
         2           O   tau(   2) = (   0.4987133   0.4987133   0.0000000  )
         3           O   tau(   3) = (  -0.4987133   0.4987133   0.0000000  )

   Crystallographic axes

     site n.     atom                  positions (cryst. coord.)
         1           Ti  tau(   1) = (  0.0000000  0.0000000  0.0000000  )
         2           O   tau(   2) = (  0.4987133  0.4987133  0.0000000  )
         3           O   tau(   3) = ( -0.4987133  0.4987133  0.0000000  )

     number of k points=    27  Methfessel-Paxton smearing, width (Ry)=  0.0100
                       cart. coord. in units 2pi/alat
        k(    1) = (   0.0000000   0.0000000   0.0000000), wk =   0.0312500
        k(    2) = (   0.0000000   0.0000000   0.2500000), wk =   0.0625000
        k(    3) = (   0.0000000   0.0000000  -0.5000000), wk =   0.0312500
        k(    4) = (   0.0000000   0.2500000   0.2500000), wk =   0.1250000
        k(    5) = (   0.0000000   0.2500000  -0.5000000), wk =   0.0625000
        k(    6) = (   0.0000000  -0.5000000  -0.5000000), wk =   0.0312500
        k(    7) = (   0.2500000   0.2500000   0.2500000), wk =   0.2500000
        k(    8) = (   0.2500000   0.2500000  -0.5000000), wk =   0.1250000
        k(    9) = (   0.2500000  -0.5000000  -0.5000000), wk =   0.0625000
        k(   10) = (  -0.5000000  -0.5000000  -0.5000000), wk =   0.0312500
        k(   11) = (   0.2500000   0.0000000   0.0000000), wk =   0.0625000
        k(   12) = (   0.0000000   0.2500000   0.0000000), wk =   0.0625000
        k(   13) = (  -0.5000000   0.0000000   0.0000000), wk =   0.0312500
        k(   14) = (   0.0000000  -0.5000000   0.0000000), wk =   0.0312500
        k(   15) = (   0.2500000   0.0000000  -0.2500000), wk =   0.1250000
        k(   16) = (   0.2500000  -0.2500000   0.0000000), wk =   0.1250000
        k(   17) = (   0.2500000   0.0000000   0.5000000), wk =   0.0625000
        k(   18) = (  -0.5000000  -0.2500000   0.0000000), wk =   0.0625000
        k(   19) = (   0.0000000  -0.5000000   0.2500000), wk =   0.0625000
        k(   20) = (   0.2500000  -0.5000000   0.0000000), wk =   0.0625000
        k(   21) = (  -0.5000000   0.0000000   0.2500000), wk =   0.0625000
        k(   22) = (  -0.5000000   0.0000000   0.5000000), wk =   0.0312500
        k(   23) = (  -0.5000000   0.5000000   0.0000000), wk =   0.0312500
        k(   24) = (  -0.5000000  -0.2500000   0.2500000), wk =   0.1250000
        k(   25) = (  -0.2500000  -0.5000000   0.2500000), wk =   0.1250000
        k(   26) = (  -0.5000000   0.2500000   0.5000000), wk =   0.0625000
        k(   27) = (  -0.5000000   0.5000000   0.2500000), wk =   0.0625000

                       cryst. coord.
        k(    1) = (   0.0000000   0.0000000   0.0000000), wk =   0.0312500
        k(    2) = (   0.0000000   0.0000000   0.2500000), wk =   0.0625000
        k(    3) = (   0.0000000   0.0000000  -0.5000000), wk =   0.0312500
        k(    4) = (   0.0000000   0.2500000   0.2500000), wk =   0.1250000
        k(    5) = (   0.0000000   0.2500000  -0.5000000), wk =   0.0625000
        k(    6) = (   0.0000000  -0.5000000  -0.5000000), wk =   0.0312500
        k(    7) = (   0.2500000   0.2500000   0.2500000), wk =   0.2500000
        k(    8) = (   0.2500000   0.2500000  -0.5000000), wk =   0.1250000
        k(    9) = (   0.2500000  -0.5000000  -0.5000000), wk =   0.0625000
        k(   10) = (  -0.5000000  -0.5000000  -0.5000000), wk =   0.0312500
        k(   11) = (   0.2500000   0.0000000   0.0000000), wk =   0.0625000
        k(   12) = (   0.0000000   0.2500000   0.0000000), wk =   0.0625000
        k(   13) = (  -0.5000000   0.0000000   0.0000000), wk =   0.0312500
        k(   14) = (   0.0000000  -0.5000000   0.0000000), wk =   0.0312500
        k(   15) = (   0.2500000   0.0000000  -0.2500000), wk =   0.1250000
        k(   16) = (   0.2500000  -0.2500000   0.0000000), wk =   0.1250000
        k(   17) = (   0.2500000   0.0000000   0.5000000), wk =   0.0625000
        k(   18) = (  -0.5000000  -0.2500000   0.0000000), wk =   0.0625000
        k(   19) = (   0.0000000  -0.5000000   0.2500000), wk =   0.0625000
        k(   20) = (   0.2500000  -0.5000000   0.0000000), wk =   0.0625000
        k(   21) = (  -0.5000000   0.0000000   0.2500000), wk =   0.0625000
        k(   22) = (  -0.5000000   0.0000000   0.5000000), wk =   0.0312500
        k(   23) = (  -0.5000000   0.5000000   0.0000000), wk =   0.0312500
        k(   24) = (  -0.5000000  -0.2500000   0.2500000), wk =   0.1250000
        k(   25) = (  -0.2500000  -0.5000000   0.2500000), wk =   0.1250000
        k(   26) = (  -0.5000000   0.2500000   0.5000000), wk =   0.0625000
        k(   27) = (  -0.5000000   0.5000000   0.2500000), wk =   0.0625000

     Dense  grid:    38641 G-vectors     FFT dimensions: (  45,  45,  45)

     Smooth grid:    13613 G-vectors     FFT dimensions: (  30,  30,  30)

     Dynamical RAM for                 wfc:       0.42 MB

     Dynamical RAM for     wfc (w. buffer):      11.69 MB

     Dynamical RAM for           str. fact:       1.18 MB

     Dynamical RAM for           local pot:       0.00 MB

     Dynamical RAM for          nlocal pot:       0.89 MB

     Dynamical RAM for                qrad:       2.87 MB

     Dynamical RAM for          rho,v,vnew:       3.85 MB

     Dynamical RAM for               rhoin:       1.28 MB

     Dynamical RAM for            rho*nmix:       9.43 MB

     Dynamical RAM for           G-vectors:       2.31 MB

     Dynamical RAM for          h,s,v(r/c):       0.05 MB

     Dynamical RAM for          <psi|beta>:       0.01 MB

     Dynamical RAM for                 psi:       0.83 MB

     Dynamical RAM for                hpsi:       0.83 MB

     Dynamical RAM for                spsi:       0.83 MB

     Dynamical RAM for      wfcinit/wfcrot:       0.95 MB

     Dynamical RAM for           addusdens:     110.85 MB

     Estimated static dynamical RAM per process >      29.33 MB

     Estimated max dynamical RAM per process >     149.61 MB

     Check: negative core charge=   -0.000009

     Initial potential from superposition of free atoms

     starting charge      23.9985, renormalised to      24.0000
     Starting wfcs are   18 randomized atomic wfcs

     total cpu time spent up to now is        1.3 secs

     Self-consistent Calculation

     iteration #  1     ecut=    40.00 Ry     beta= 0.70
     Davidson diagonalization with overlap

---- Real-time Memory Report at c_bands before calling an iterative solver
           155 MiB given to the printing process from OS
             0 MiB allocation reported by mallinfo(arena+hblkhd)
          4593 MiB available memory on the node where the printing process lives
------------------
     ethr =  1.00E-02,  avg # of iterations =  5.7

     total cpu time spent up to now is        3.1 secs

     total energy              =    3529.26706910 Ry
     estimated scf accuracy    <       7.37717279 Ry

     iteration #  2     ecut=    40.00 Ry     beta= 0.70
     Davidson diagonalization with overlap

---- Real-time Memory Report at c_bands before calling an iterative solver
           194 MiB given to the printing process from OS
             0 MiB allocation reported by mallinfo(arena+hblkhd)
          4559 MiB available memory on the node where the printing process lives
------------------
     ethr =  1.00E-02,  avg # of iterations =  6.0

     total cpu time spent up to now is        4.9 secs

     total energy              =    3526.60589575 Ry
     estimated scf accuracy    <       9.38220943 Ry

     iteration #  3     ecut=    40.00 Ry     beta= 0.70
     Davidson diagonalization with overlap

---- Real-time Memory Report at c_bands before calling an iterative solver
           196 MiB given to the printing process from OS
             0 MiB allocation reported by mallinfo(arena+hblkhd)
          4558 MiB available memory on the node where the printing process lives
------------------
     ethr =  1.00E-02,  avg # of iterations =  3.3

     total cpu time spent up to now is        6.3 secs

     total energy              =    3526.85818468 Ry
     estimated scf accuracy    <       1.47440546 Ry

     iteration #  4     ecut=    40.00 Ry     beta= 0.70
     Davidson diagonalization with overlap

---- Real-time Memory Report at c_bands before calling an iterative solver
           196 MiB given to the printing process from OS
             0 MiB allocation reported by mallinfo(arena+hblkhd)
          4558 MiB available memory on the node where the printing process lives
------------------
     ethr =  6.14E-03,  avg # of iterations =  6.6

     total cpu time spent up to now is        8.1 secs

     total energy              =    3527.77579118 Ry
     estimated scf accuracy    <      14.11588754 Ry

     iteration #  5     ecut=    40.00 Ry     beta= 0.70
     Davidson diagonalization with overlap

---- Real-time Memory Report at c_bands before calling an iterative solver
           197 MiB given to the printing process from OS
             0 MiB allocation reported by mallinfo(arena+hblkhd)
          4557 MiB available memory on the node where the printing process lives
------------------
     ethr =  6.14E-03,  avg # of iterations =  3.6

     total cpu time spent up to now is        9.5 secs

     total energy              =    3525.97016263 Ry
     estimated scf accuracy    <       0.13254564 Ry

     iteration #  6     ecut=    40.00 Ry     beta= 0.70
     Davidson diagonalization with overlap

---- Real-time Memory Report at c_bands before calling an iterative solver
           197 MiB given to the printing process from OS
             0 MiB allocation reported by mallinfo(arena+hblkhd)
          4557 MiB available memory on the node where the printing process lives
------------------
     ethr =  5.52E-04,  avg # of iterations =  4.9

     total cpu time spent up to now is       10.8 secs

     total energy              =    3526.04409192 Ry
     estimated scf accuracy    <       0.60801876 Ry

     iteration #  7     ecut=    40.00 Ry     beta= 0.70
     Davidson diagonalization with overlap

---- Real-time Memory Report at c_bands before calling an iterative solver
           199 MiB given to the printing process from OS
             0 MiB allocation reported by mallinfo(arena+hblkhd)
          4554 MiB available memory on the node where the printing process lives
------------------
     ethr =  5.52E-04,  avg # of iterations =  3.0

     total cpu time spent up to now is       12.0 secs

     total energy              =    3526.03958296 Ry
     estimated scf accuracy    <       0.11986756 Ry

     iteration #  8     ecut=    40.00 Ry     beta= 0.70
     Davidson diagonalization with overlap

---- Real-time Memory Report at c_bands before calling an iterative solver
           200 MiB given to the printing process from OS
             0 MiB allocation reported by mallinfo(arena+hblkhd)
          4554 MiB available memory on the node where the printing process lives
------------------
     ethr =  4.99E-04,  avg # of iterations =  3.0

     total cpu time spent up to now is       13.1 secs

     total energy              =    3526.02703135 Ry
     estimated scf accuracy    <       0.00785865 Ry

     iteration #  9     ecut=    40.00 Ry     beta= 0.70
     Davidson diagonalization with overlap

---- Real-time Memory Report at c_bands before calling an iterative solver
           200 MiB given to the printing process from OS
             0 MiB allocation reported by mallinfo(arena+hblkhd)
          4553 MiB available memory on the node where the printing process lives
------------------
     ethr =  3.27E-05,  avg # of iterations =  5.6

     total cpu time spent up to now is       14.5 secs

     total energy              =    3526.02529532 Ry
     estimated scf accuracy    <       0.00528001 Ry

     iteration # 10     ecut=    40.00 Ry     beta= 0.70
     Davidson diagonalization with overlap

---- Real-time Memory Report at c_bands before calling an iterative solver
           201 MiB given to the printing process from OS
             0 MiB allocation reported by mallinfo(arena+hblkhd)
          4553 MiB available memory on the node where the printing process lives
------------------
     c_bands:  1 eigenvalues not converged
     ethr =  2.20E-05,  avg # of iterations =  2.2

     total cpu time spent up to now is       15.5 secs

     total energy              =    3526.02632733 Ry
     estimated scf accuracy    <       0.00389381 Ry

     iteration # 11     ecut=    40.00 Ry     beta= 0.70
     Davidson diagonalization with overlap

---- Real-time Memory Report at c_bands before calling an iterative solver
           201 MiB given to the printing process from OS
             0 MiB allocation reported by mallinfo(arena+hblkhd)
          4553 MiB available memory on the node where the printing process lives
------------------
     ethr =  1.62E-05,  avg # of iterations =  4.2

     total cpu time spent up to now is       16.8 secs

     total energy              =    3526.02604935 Ry
     estimated scf accuracy    <       0.00920346 Ry

     iteration # 12     ecut=    40.00 Ry     beta= 0.70
     Davidson diagonalization with overlap

---- Real-time Memory Report at c_bands before calling an iterative solver
           201 MiB given to the printing process from OS
             0 MiB allocation reported by mallinfo(arena+hblkhd)
          4553 MiB available memory on the node where the printing process lives
------------------
     ethr =  1.62E-05,  avg # of iterations =  1.4

     total cpu time spent up to now is       18.0 secs

     total energy              =    3526.02646443 Ry
     estimated scf accuracy    <       0.00356626 Ry

     iteration # 13     ecut=    40.00 Ry     beta= 0.70
     Davidson diagonalization with overlap

---- Real-time Memory Report at c_bands before calling an iterative solver
           201 MiB given to the printing process from OS
             0 MiB allocation reported by mallinfo(arena+hblkhd)
          4553 MiB available memory on the node where the printing process lives
------------------
     ethr =  1.49E-05,  avg # of iterations =  2.3

     total cpu time spent up to now is       19.1 secs

     total energy              =    3526.02629941 Ry
     estimated scf accuracy    <       0.00029434 Ry

     iteration # 14     ecut=    40.00 Ry     beta= 0.70
     Davidson diagonalization with overlap

---- Real-time Memory Report at c_bands before calling an iterative solver
           201 MiB given to the printing process from OS
             0 MiB allocation reported by mallinfo(arena+hblkhd)
          4552 MiB available memory on the node where the printing process lives
------------------
     ethr =  1.23E-06,  avg # of iterations =  5.3

     total cpu time spent up to now is       20.5 secs

     total energy              =    3526.02617975 Ry
     estimated scf accuracy    <       0.00016055 Ry

     iteration # 15     ecut=    40.00 Ry     beta= 0.70
     Davidson diagonalization with overlap

---- Real-time Memory Report at c_bands before calling an iterative solver
           201 MiB given to the printing process from OS
             0 MiB allocation reported by mallinfo(arena+hblkhd)
          4552 MiB available memory on the node where the printing process lives
------------------
     ethr =  6.69E-07,  avg # of iterations =  1.4

     total cpu time spent up to now is       21.5 secs

     total energy              =    3526.02622308 Ry
     estimated scf accuracy    <       0.00009155 Ry

     iteration # 16     ecut=    40.00 Ry     beta= 0.70
     Davidson diagonalization with overlap

---- Real-time Memory Report at c_bands before calling an iterative solver
           201 MiB given to the printing process from OS
             0 MiB allocation reported by mallinfo(arena+hblkhd)
          4552 MiB available memory on the node where the printing process lives
------------------
     ethr =  3.81E-07,  avg # of iterations =  4.1

     total cpu time spent up to now is       22.8 secs

     total energy              =    3526.02616234 Ry
     estimated scf accuracy    <       0.00044905 Ry

     iteration # 17     ecut=    40.00 Ry     beta= 0.70
     Davidson diagonalization with overlap

---- Real-time Memory Report at c_bands before calling an iterative solver
           201 MiB given to the printing process from OS
             0 MiB allocation reported by mallinfo(arena+hblkhd)
          4552 MiB available memory on the node where the printing process lives
------------------
     ethr =  3.81E-07,  avg # of iterations =  1.1

     total cpu time spent up to now is       23.9 secs

     total energy              =    3526.02619383 Ry
     estimated scf accuracy    <       0.00023984 Ry

     iteration # 18     ecut=    40.00 Ry     beta= 0.70
     Davidson diagonalization with overlap

---- Real-time Memory Report at c_bands before calling an iterative solver
           201 MiB given to the printing process from OS
             0 MiB allocation reported by mallinfo(arena+hblkhd)
          4551 MiB available memory on the node where the printing process lives
------------------
     ethr =  3.81E-07,  avg # of iterations =  2.7

     total cpu time spent up to now is       25.0 secs

     total energy              =    3526.02618388 Ry
     estimated scf accuracy    <       0.00002802 Ry

     iteration # 19     ecut=    40.00 Ry     beta= 0.70
     Davidson diagonalization with overlap

---- Real-time Memory Report at c_bands before calling an iterative solver
           201 MiB given to the printing process from OS
             0 MiB allocation reported by mallinfo(arena+hblkhd)
          4551 MiB available memory on the node where the printing process lives
------------------
     ethr =  1.17E-07,  avg # of iterations =  1.6

     total cpu time spent up to now is       26.0 secs

     total energy              =    3526.02618516 Ry
     estimated scf accuracy    <       0.00001216 Ry

     iteration # 20     ecut=    40.00 Ry     beta= 0.70
     Davidson diagonalization with overlap

---- Real-time Memory Report at c_bands before calling an iterative solver
           201 MiB given to the printing process from OS
             0 MiB allocation reported by mallinfo(arena+hblkhd)
          4551 MiB available memory on the node where the printing process lives
------------------
     ethr =  5.07E-08,  avg # of iterations =  3.9

     total cpu time spent up to now is       27.1 secs

     total energy              =    3526.02618342 Ry
     estimated scf accuracy    <       0.00000014 Ry

     iteration # 21     ecut=    40.00 Ry     beta= 0.70
     Davidson diagonalization with overlap

---- Real-time Memory Report at c_bands before calling an iterative solver
           201 MiB given to the printing process from OS
             0 MiB allocation reported by mallinfo(arena+hblkhd)
          4551 MiB available memory on the node where the printing process lives
------------------
     ethr =  5.99E-10,  avg # of iterations =  7.4

     total cpu time spent up to now is       28.7 secs

     total energy              =    3526.02618321 Ry
     estimated scf accuracy    <       0.00000043 Ry

     iteration # 22     ecut=    40.00 Ry     beta= 0.70
     Davidson diagonalization with overlap

---- Real-time Memory Report at c_bands before calling an iterative solver
           201 MiB given to the printing process from OS
             0 MiB allocation reported by mallinfo(arena+hblkhd)
          4551 MiB available memory on the node where the printing process lives
------------------
     ethr =  5.99E-10,  avg # of iterations =  2.0

     total cpu time spent up to now is       29.9 secs

     total energy              =    3526.02618321 Ry
     estimated scf accuracy    <       0.00000009 Ry

     iteration # 23     ecut=    40.00 Ry     beta= 0.70
     Davidson diagonalization with overlap

---- Real-time Memory Report at c_bands before calling an iterative solver
           201 MiB given to the printing process from OS
             0 MiB allocation reported by mallinfo(arena+hblkhd)
          4551 MiB available memory on the node where the printing process lives
------------------
     ethr =  3.63E-10,  avg # of iterations =  2.3

     total cpu time spent up to now is       31.0 secs

     End of self-consistent calculation

          k = 0.0000 0.0000 0.0000 (  1743 PWs)   bands (ev):

   -86.6574 -86.6083 -86.5993 -50.4475 -32.2114 -26.9707 -26.5734 -26.5732
     3.0324   5.5599   6.4316   6.7024   6.7079   6.7387   7.1462   7.7671

     occupation numbers 
     1.0000   1.0000   1.0000   1.0000   1.0000   1.0000   1.0000   1.0000
     1.0000   1.0000   1.0047   0.6374   0.6043   0.4140  -0.0001  -0.0000

          k = 0.0000 0.0000 0.2500 (  1707 PWs)   bands (ev):

   -86.6565 -86.6077 -86.5987 -50.4471 -32.1905 -26.9774 -26.5728 -26.5726
     3.1490   5.3254   5.6779   6.7627   6.8878   6.8886   7.6185   7.6187

     occupation numbers 
     1.0000   1.0000   1.0000   1.0000   1.0000   1.0000   1.0000   1.0000
     1.0000   1.0000   1.0000   0.2744  -0.0353  -0.0354  -0.0000  -0.0000

          k = 0.0000 0.0000-0.5000 (  1686 PWs)   bands (ev):

   -86.6549 -86.6075 -86.5986 -50.4467 -32.1777 -26.9841 -26.5722 -26.5721
     3.2202   4.7081   5.8040   6.7831   7.2738   7.2738   7.2743   7.2746

     occupation numbers 
     1.0000   1.0000   1.0000   1.0000   1.0000   1.0000   1.0000   1.0000
     1.0000   1.0000   1.0000   0.1718  -0.0000  -0.0000  -0.0000  -0.0000

          k = 0.0000 0.2500 0.2500 (  1708 PWs)   bands (ev):

   -86.6567 -86.6075 -86.5990 -50.4464 -32.1941 -26.9768 -26.5721 -26.5694
     2.8931   4.4356   5.4521   6.1411   7.0488   7.6211   8.2845   8.6467

     occupation numbers 
     1.0000   1.0000   1.0000   1.0000   1.0000   1.0000   1.0000   1.0000
     1.0000   1.0000   1.0000   1.0000  -0.0019  -0.0000  -0.0000  -0.0000

          k = 0.0000 0.2500-0.5000 (  1700 PWs)   bands (ev):

   -86.6556 -86.6078 -86.5986 -50.4461 -32.1877 -26.9835 -26.5715 -26.5688
     3.4801   3.5500   5.5731   6.1852   7.1367   7.4283   8.4933   8.9518

     occupation numbers 
     1.0000   1.0000   1.0000   1.0000   1.0000   1.0000   1.0000   1.0000
     1.0000   1.0000   1.0000   1.0000  -0.0001  -0.0000  -0.0000  -0.0000

          k = 0.0000-0.5000-0.5000 (  1692 PWs)   bands (ev):

   -86.6557 -86.6065 -86.5981 -50.4455 -32.1882 -26.9828 -26.5707 -26.5655
     2.7908   3.8046   5.0745   7.0035   7.6012   7.7325   8.1284   8.6715

     occupation numbers 
     1.0000   1.0000   1.0000   1.0000   1.0000   1.0000   1.0000   1.0000
     1.0000   1.0000   1.0000  -0.0068  -0.0000  -0.0000  -0.0000  -0.0000

          k = 0.2500 0.2500 0.2500 (  1713 PWs)   bands (ev):

   -86.6569 -86.6077 -86.5988 -50.4460 -32.1937 -26.9761 -26.5813 -26.5688
     3.0575   4.4746   4.8292   6.5055   7.0906   7.2568   8.3957   8.4785

     occupation numbers 
     1.0000   1.0000   1.0000   1.0000   1.0000   1.0000   1.0000   1.0000
     1.0000   1.0000   1.0000   1.0225  -0.0005  -0.0000  -0.0000  -0.0000

          k = 0.2500 0.2500-0.5000 (  1710 PWs)   bands (ev):

   -86.6563 -86.6075 -86.5985 -50.4456 -32.1895 -26.9828 -26.5807 -26.5682
     3.6401   3.8175   4.8148   6.5337   6.6238   8.0346   8.4767   8.4807

     occupation numbers 
     1.0000   1.0000   1.0000   1.0000   1.0000   1.0000   1.0000   1.0000
     1.0000   1.0000   1.0000   1.0316   0.9738  -0.0000  -0.0000  -0.0000

          k = 0.2500-0.5000-0.5000 (  1692 PWs)   bands (ev):

   -86.6558 -86.6066 -86.5984 -50.4451 -32.1778 -26.9821 -26.5800 -26.5772
     3.4200   4.2879   4.7126   6.3625   7.2370   7.6653   8.0129   8.6569

     occupation numbers 
     1.0000   1.0000   1.0000   1.0000   1.0000   1.0000   1.0000   1.0000
     1.0000   1.0000   1.0000   1.0005  -0.0000  -0.0000  -0.0000  -0.0000

          k =-0.5000-0.5000-0.5000 (  1736 PWs)   bands (ev):

   -86.6577 -86.6086 -86.5996 -50.4448 -32.1884 -26.9815 -26.5893 -26.5892
     4.4078   4.4080   5.3924   6.0518   6.0525   6.8415   7.2748   9.3001

     occupation numbers 
     1.0000   1.0000   1.0000   1.0000   1.0000   1.0000   1.0000   1.0000
     1.0000   1.0000   1.0000   1.0000   1.0000  -0.0034  -0.0000  -0.0000

          k = 0.2500 0.0000 0.0000 (  1707 PWs)   bands (ev):

   -86.6568 -86.6077 -86.5984 -50.4468 -32.1973 -26.9700 -26.5725 -26.5700
     2.5908   5.1597   5.3431   6.5776   6.5867   7.8609   8.0563   8.7518

     occupation numbers 
     1.0000   1.0000   1.0000   1.0000   1.0000   1.0000   1.0000   1.0000
     1.0000   1.0000   1.0000   1.0317   1.0266  -0.0000  -0.0000  -0.0000

          k = 0.0000 0.2500 0.0000 (  1707 PWs)   bands (ev):

   -86.6568 -86.6073 -86.5987 -50.4468 -32.1971 -26.9700 -26.5726 -26.5699
     2.5907   5.1606   5.3428   6.5775   6.5868   7.8606   8.0560   8.7521

     occupation numbers 
     1.0000   1.0000   1.0000   1.0000   1.0000   1.0000   1.0000   1.0000
     1.0000   1.0000   1.0000   1.0317   1.0266  -0.0000  -0.0000  -0.0000

          k =-0.5000 0.0000 0.0000 (  1686 PWs)   bands (ev):

   -86.6567 -86.6075 -86.5968 -50.4461 -32.1914 -26.9694 -26.5717 -26.5668
     2.0740   4.8599   5.8587   6.3069   6.5972   7.9466   8.2245   9.9343

     occupation numbers 
     1.0000   1.0000   1.0000   1.0000   1.0000   1.0000   1.0000   1.0000
     1.0000   1.0000   1.0000   1.0001   1.0174  -0.0000  -0.0000  -0.0000

          k = 0.0000-0.5000 0.0000 (  1686 PWs)   bands (ev):

   -86.6567 -86.6058 -86.5985 -50.4461 -32.1906 -26.9694 -26.5719 -26.5667
     2.0741   4.8598   5.8598   6.3070   6.5972   7.9465   8.2246   9.9343

     occupation numbers 
     1.0000   1.0000   1.0000   1.0000   1.0000   1.0000   1.0000   1.0000
     1.0000   1.0000   1.0000   1.0001   1.0174  -0.0000  -0.0000  -0.0000

          k = 0.2500 0.0000-0.2500 (  1708 PWs)   bands (ev):

   -86.6567 -86.6080 -86.5986 -50.4464 -32.1944 -26.9768 -26.5719 -26.5695
     2.8931   4.4354   5.4523   6.1409   7.0486   7.6213   8.2843   8.6463

     occupation numbers 
     1.0000   1.0000   1.0000   1.0000   1.0000   1.0000   1.0000   1.0000
     1.0000   1.0000   1.0000   1.0000  -0.0019  -0.0000  -0.0000  -0.0000

          k = 0.2500-0.2500 0.0000 (  1708 PWs)   bands (ev):

   -86.6572 -86.6075 -86.5986 -50.4463 -32.1947 -26.9694 -26.5819 -26.5693
     2.7587   4.2268   5.8693   6.6821   6.7520   7.4879   8.2900   8.7866

     occupation numbers 
     1.0000   1.0000   1.0000   1.0000   1.0000   1.0000   1.0000   1.0000
     1.0000   1.0000   1.0000   0.7517   0.3348  -0.0000  -0.0000  -0.0000

          k = 0.2500 0.0000 0.5000 (  1700 PWs)   bands (ev):

   -86.6556 -86.6075 -86.5989 -50.4461 -32.1875 -26.9835 -26.5714 -26.5689
     3.4801   3.5500   5.5733   6.1848   7.1361   7.4286   8.4932   8.9509

     occupation numbers 
     1.0000   1.0000   1.0000   1.0000   1.0000   1.0000   1.0000   1.0000
     1.0000   1.0000   1.0000   1.0000  -0.0001  -0.0000  -0.0000  -0.0000

          k =-0.5000-0.2500 0.0000 (  1700 PWs)   bands (ev):

   -86.6567 -86.6078 -86.5975 -50.4458 -32.1883 -26.9687 -26.5811 -26.5786
     2.6900   4.1100   6.3974   6.6430   6.6960   7.5231   8.1490   9.0898

     occupation numbers 
     1.0000   1.0000   1.0000   1.0000   1.0000   1.0000   1.0000   1.0000
     1.0000   1.0000   1.0017   0.9206   0.6749  -0.0000  -0.0000  -0.0000

          k = 0.0000-0.5000 0.2500 (  1700 PWs)   bands (ev):

   -86.6570 -86.6064 -86.5985 -50.4458 -32.1943 -26.9761 -26.5713 -26.5662
     2.3964   4.4816   4.9638   6.8167   7.3257   7.7636   8.2216   8.9476

     occupation numbers 
     1.0000   1.0000   1.0000   1.0000   1.0000   1.0000   1.0000   1.0000
     1.0000   1.0000   1.0000   0.0491  -0.0000  -0.0000  -0.0000  -0.0000

          k = 0.2500-0.5000 0.0000 (  1700 PWs)   bands (ev):

   -86.6567 -86.6064 -86.5989 -50.4458 -32.1880 -26.9687 -26.5812 -26.5785
     2.6901   4.1100   6.3978   6.6429   6.6960   7.5233   8.1491   9.0897

     occupation numbers 
     1.0000   1.0000   1.0000   1.0000   1.0000   1.0000   1.0000   1.0000
     1.0000   1.0000   1.0018   0.9209   0.6748  -0.0000  -0.0000  -0.0000

          k =-0.5000 0.0000 0.2500 (  1700 PWs)   bands (ev):

   -86.6570 -86.6075 -86.5975 -50.4458 -32.1945 -26.9761 -26.5712 -26.5663
     2.3964   4.4814   4.9640   6.8165   7.3250   7.7637   8.2215   8.9479

     occupation numbers 
     1.0000   1.0000   1.0000   1.0000   1.0000   1.0000   1.0000   1.0000
     1.0000   1.0000   1.0000   0.0496  -0.0000  -0.0000  -0.0000  -0.0000

          k =-0.5000 0.0000 0.5000 (  1692 PWs)   bands (ev):

   -86.6557 -86.6070 -86.5976 -50.4455 -32.1881 -26.9828 -26.5706 -26.5657
     2.7907   3.8046   5.0747   7.0026   7.6013   7.7318   8.1283   8.6714

     occupation numbers 
     1.0000   1.0000   1.0000   1.0000   1.0000   1.0000   1.0000   1.0000
     1.0000   1.0000   1.0000  -0.0070  -0.0000  -0.0000  -0.0000  -0.0000

          k =-0.5000 0.5000 0.0000 (  1692 PWs)   bands (ev):

   -86.6562 -86.6065 -86.5976 -50.4454 -32.1758 -26.9681 -26.5904 -26.5903
     3.6634   3.6635   6.5503   6.5729   7.2068   7.2071   7.2149   8.5518

     occupation numbers 
     1.0000   1.0000   1.0000   1.0000   1.0000   1.0000   1.0000   1.0000
     1.0000   1.0000   1.0350   1.0334  -0.0000  -0.0000  -0.0000  -0.0000

          k =-0.5000-0.2500 0.2500 (  1710 PWs)   bands (ev):

   -86.6567 -86.6075 -86.5982 -50.4455 -32.1897 -26.9755 -26.5805 -26.5781
     3.0099   4.2723   5.1847   6.7932   7.1126   7.4393   8.1133   8.2063

     occupation numbers 
     1.0000   1.0000   1.0000   1.0000   1.0000   1.0000   1.0000   1.0000
     1.0000   1.0000   1.0000   0.1286  -0.0002  -0.0000  -0.0000  -0.0000

          k =-0.2500-0.5000 0.2500 (  1710 PWs)   bands (ev):

   -86.6567 -86.6071 -86.5986 -50.4455 -32.1897 -26.9755 -26.5806 -26.5780
     3.0100   4.2723   5.1846   6.7935   7.1128   7.4394   8.1130   8.2064

     occupation numbers 
     1.0000   1.0000   1.0000   1.0000   1.0000   1.0000   1.0000   1.0000
     1.0000   1.0000   1.0000   0.1273  -0.0002  -0.0000  -0.0000  -0.0000

          k =-0.5000 0.2500 0.5000 (  1692 PWs)   bands (ev):

   -86.6558 -86.6073 -86.5977 -50.4451 -32.1780 -26.9821 -26.5799 -26.5774
     3.4199   4.2880   4.7128   6.3620   7.2368   7.6656   8.0127   8.7339

     occupation numbers 
     1.0000   1.0000   1.0000   1.0000   1.0000   1.0000   1.0000   1.0000
     1.0000   1.0000   1.0000   1.0005  -0.0000  -0.0000  -0.0000  -0.0000

          k =-0.5000 0.5000 0.2500 (  1692 PWs)   bands (ev):

   -86.6565 -86.6066 -86.5977 -50.4450 -32.1718 -26.9748 -26.5898 -26.5897
     3.9586   3.9587   6.1174   6.7114   6.7119   6.9789   7.2379   7.3682

     occupation numbers 
     1.0000   1.0000   1.0000   1.0000   1.0000   1.0000   1.0000   1.0000
     1.0000   1.0000   1.0000   0.5831   0.5800  -0.0120  -0.0000  -0.0000

     the Fermi energy is     6.7248 ev

!    total energy              =    3526.02618320 Ry
     estimated scf accuracy    <          5.3E-09 Ry
     smearing contrib. (-TS)   =      -0.00046256 Ry
     internal energy E=F+TS    =    3526.02664576 Ry

     The total energy is F=E-TS. E is the sum of the following terms:
     one-electron contribution =    -183.42805674 Ry
     hartree contribution      =      82.37202322 Ry
     xc contribution           =     -35.67264350 Ry
     ewald contribution        =    3662.75532279 Ry

     convergence has been achieved in  23 iterations

     Writing all to output data dir ./tmp/tio2.save/

     init_run     :      1.06s CPU      1.20s WALL (       1 calls)
     electrons    :     28.31s CPU     29.65s WALL (       1 calls)

     Called by init_run:
     wfcinit      :      0.44s CPU      0.46s WALL (       1 calls)
     wfcinit:atom :      0.01s CPU      0.01s WALL (      27 calls)
     wfcinit:wfcr :      0.39s CPU      0.41s WALL (      27 calls)
     potinit      :      0.19s CPU      0.20s WALL (       1 calls)
     hinit0       :      0.35s CPU      0.40s WALL (       1 calls)

     Called by electrons:
     c_bands      :     22.20s CPU     22.39s WALL (      23 calls)
     sum_band     :      4.00s CPU      4.86s WALL (      23 calls)
     v_of_rho     :      0.74s CPU      0.74s WALL (      24 calls)
     v_h          :      0.03s CPU      0.03s WALL (      24 calls)
     v_xc         :      0.71s CPU      0.71s WALL (      24 calls)
     newd         :      1.34s CPU      1.65s WALL (      24 calls)
     mix_rho      :      0.09s CPU      0.09s WALL (      23 calls)

     Called by c_bands:
     init_us_2    :      0.42s CPU      0.42s WALL (    1269 calls)
     init_us_2:cp :      0.42s CPU      0.42s WALL (    1269 calls)
     cegterg      :     21.28s CPU     21.47s WALL (     621 calls)

     Called by sum_band:
     sum_band:wei :      0.01s CPU      0.01s WALL (      23 calls)
     sum_band:loo :      2.50s CPU      2.53s WALL (      23 calls)
     sum_band:buf :      0.03s CPU      0.03s WALL (     621 calls)
     sum_band:ini :      0.20s CPU      0.20s WALL (     621 calls)
     sum_band:cal :      0.73s CPU      0.73s WALL (     621 calls)
     sum_band:bec :      0.01s CPU      0.01s WALL (     621 calls)
     addusdens    :      1.43s CPU      2.25s WALL (      23 calls)
                                        0.00s GPU  (      23 calls)
     addusd:skk   :      0.01s CPU      0.01s WALL (      46 calls)
                                        0.00s GPU  (      46 calls)

     Called by *egterg:
     cdiaghg      :      0.61s CPU      0.64s WALL (    2882 calls)
     cegterg:over :      2.00s CPU      2.01s WALL (    2261 calls)
     cegterg:upda :      1.27s CPU      1.28s WALL (    2261 calls)
     cegterg:last :      2.96s CPU      3.00s WALL (    1309 calls)
     h_psi        :     11.82s CPU     11.93s WALL (    2909 calls)
     s_psi        :      1.99s CPU      2.00s WALL (    2909 calls)
     g_psi        :      0.08s CPU      0.08s WALL (    2261 calls)

     Called by h_psi:
     h_psi:calbec :      1.98s CPU      1.99s WALL (    2909 calls)
     vloc_psi     :      7.76s CPU      7.86s WALL (    2909 calls)
     add_vuspsi   :      2.00s CPU      2.01s WALL (    2909 calls)

     General routines
     calbec       :      2.70s CPU      2.71s WALL (    3530 calls)
     fft          :      0.38s CPU      0.39s WALL (     310 calls)
     ffts         :      0.13s CPU      0.14s WALL (      47 calls)
     fftw         :      6.90s CPU      7.00s WALL (   61864 calls)
     interpolate  :      0.15s CPU      0.16s WALL (      24 calls)

     Parallel routines

     PWSCF        :     29.49s CPU     31.01s WALL


   This run was terminated on:  20:13: 7  17Jul2025            

=------------------------------------------------------------------------------=
   JOB DONE.
=------------------------------------------------------------------------------=
