
     Program PWSCF v.7.2 starts on 17Jul2025 at 21:19:55 

     This program is part of the open-source Quantum ESPRESSO suite
     for quantum simulation of materials; please cite
         "P. Giannozzi et al., J. Phys.:Condens. Matter 21 395502 (2009);
         "P. Giannozzi et al., J. Phys.:Condens. Matter 29 465901 (2017);
         "P. Giannozzi et al., J. Chem. Phys. 152 154105 (2020);
          URL http://www.quantum-espresso.org", 
     in publications or presentations arising from this work. More details at
     http://www.quantum-espresso.org/quote

     Parallel version (MPI), running on     1 processors

     MPI processes distributed on     1 nodes
     4599 MiB available memory on the printing compute node when the environment starts

     Waiting for input...
     Reading input from standard input

     Current dimensions of program PWSCF are:
     Max number of different atomic species (ntypx) = 10
     Max number of k-points (npk) =  40000
     Max angular momentum in pseudopotentials (lmaxx) =  4
     file Ti.pbe-spn-rrkjus_psl.1.0.0.UPF: wavefunction(s)  3S 3D renormalized

     Subspace diagonalization in iterative solution of the eigenvalue problem:
     a serial algorithm will be used


     G-vector sticks info
     --------------------
     sticks:   dense  smooth     PW     G-vecs:    dense   smooth      PW
     Sum        1741     869    261                54339    19213    3191

     Using Slab Decomposition



     bravais-lattice index     =            1
     lattice parameter (alat)  =       7.3700  a.u.
     unit-cell volume          =     400.3156 (a.u.)^3
     number of atoms/cell      =            3
     number of atomic types    =            2
     number of electrons       =        24.00
     number of Kohn-Sham states=           16
     kinetic-energy cutoff     =      50.0000  Ry
     charge density cutoff     =     400.0000  Ry
     scf convergence threshold =      1.0E-08
     mixing beta               =       0.7000
     number of iterations used =            8  plain     mixing
     Exchange-correlation= PBE
                           (   1   4   3   4   0   0   0)

     celldm(1)=   7.370000  celldm(2)=   0.000000  celldm(3)=   0.000000
     celldm(4)=   0.000000  celldm(5)=   0.000000  celldm(6)=   0.000000

     crystal axes: (cart. coord. in units of alat)
               a(1) = (   1.000000   0.000000   0.000000 )  
               a(2) = (   0.000000   1.000000   0.000000 )  
               a(3) = (   0.000000   0.000000   1.000000 )  

     reciprocal axes: (cart. coord. in units 2 pi/alat)
               b(1) = (  1.000000  0.000000  0.000000 )  
               b(2) = (  0.000000  1.000000  0.000000 )  
               b(3) = (  0.000000  0.000000  1.000000 )  


     PseudoPot. # 1 for Ti read from file:
     ../pseudo/Ti.pbe-spn-rrkjus_psl.1.0.0.UPF
     MD5 check sum: e281089c08e14b8efcf92e44a67ada65
     Pseudo is Ultrasoft + core correction, Zval = 12.0
     Generated using &quot;atomic&quot; code by A. Dal Corso  v.6.2.2
     Using radial grid of 1177 points,  6 beta functions with: 
                l(1) =   0
                l(2) =   0
                l(3) =   1
                l(4) =   1
                l(5) =   2
                l(6) =   2
     Q(r) pseudized with 0 coefficients 


     PseudoPot. # 2 for O  read from file:
     ../pseudo/O.pbe-n-rrkjus_psl.1.0.0.UPF
     MD5 check sum: 91400c9766925bcf19f520983a725ff0
     Pseudo is Ultrasoft + core correction, Zval =  6.0
     Generated using &quot;atomic&quot; code by A. Dal Corso  v.6.3MaX
     Using radial grid of 1095 points,  4 beta functions with: 
                l(1) =   0
                l(2) =   0
                l(3) =   1
                l(4) =   1
     Q(r) pseudized with 0 coefficients 


     atomic species   valence    mass     pseudopotential
        Ti            12.00    47.86700     Ti( 1.00)
        O              6.00    15.99900     O ( 1.00)

      4 Sym. Ops. (no inversion) found


                                    s                        frac. trans.

      isym =  1     identity                                     

 cryst.   s( 1) = (     1          0          0      )
                  (     0          1          0      )
                  (     0          0          1      )

 cart.    s( 1) = (  1.0000000  0.0000000  0.0000000 )
                  (  0.0000000  1.0000000  0.0000000 )
                  (  0.0000000  0.0000000  1.0000000 )


      isym =  2     180 deg rotation - cart. axis [0,1,0]        

 cryst.   s( 2) = (    -1          0          0      )
                  (     0          1          0      )
                  (     0          0         -1      )

 cart.    s( 2) = ( -1.0000000  0.0000000  0.0000000 )
                  (  0.0000000  1.0000000  0.0000000 )
                  (  0.0000000  0.0000000 -1.0000000 )


      isym =  3     inv. 180 deg rotation - cart. axis [0,0,1]   

 cryst.   s( 3) = (     1          0          0      )
                  (     0          1          0      )
                  (     0          0         -1      )

 cart.    s( 3) = (  1.0000000  0.0000000  0.0000000 )
                  (  0.0000000  1.0000000  0.0000000 )
                  (  0.0000000  0.0000000 -1.0000000 )


      isym =  4     inv. 180 deg rotation - cart. axis [1,0,0]   

 cryst.   s( 4) = (    -1          0          0      )
                  (     0          1          0      )
                  (     0          0          1      )

 cart.    s( 4) = ( -1.0000000  0.0000000  0.0000000 )
                  (  0.0000000  1.0000000  0.0000000 )
                  (  0.0000000  0.0000000  1.0000000 )


     point group C_2v (mm2) 
     there are  4 classes
     the character table:

       E     C2    s_v   s_v' 
A_1    1.00  1.00  1.00  1.00
A_2    1.00  1.00 -1.00 -1.00
B_1    1.00 -1.00  1.00 -1.00
B_2    1.00 -1.00 -1.00  1.00

     the symmetry operations in each class and the name of the first element:

     E        1
          identity                                               
     C2       2
          180 deg rotation - cart. axis [0,1,0]                  
     s_v      3
          inv. 180 deg rotation - cart. axis [0,0,1]             
     s_v'     4
          inv. 180 deg rotation - cart. axis [1,0,0]             

   Cartesian axes

     site n.     atom                  positions (alat units)
         1           Ti  tau(   1) = (   0.0000000   0.0000000   0.0000000  )
         2           O   tau(   2) = (   0.4987133   0.4987133   0.0000000  )
         3           O   tau(   3) = (  -0.4987133   0.4987133   0.0000000  )

   Crystallographic axes

     site n.     atom                  positions (cryst. coord.)
         1           Ti  tau(   1) = (  0.0000000  0.0000000  0.0000000  )
         2           O   tau(   2) = (  0.4987133  0.4987133  0.0000000  )
         3           O   tau(   3) = ( -0.4987133  0.4987133  0.0000000  )

     number of k points=    27  Methfessel-Paxton smearing, width (Ry)=  0.0100
                       cart. coord. in units 2pi/alat
        k(    1) = (   0.0000000   0.0000000   0.0000000), wk =   0.0312500
        k(    2) = (   0.0000000   0.0000000   0.2500000), wk =   0.0625000
        k(    3) = (   0.0000000   0.0000000  -0.5000000), wk =   0.0312500
        k(    4) = (   0.0000000   0.2500000   0.2500000), wk =   0.1250000
        k(    5) = (   0.0000000   0.2500000  -0.5000000), wk =   0.0625000
        k(    6) = (   0.0000000  -0.5000000  -0.5000000), wk =   0.0312500
        k(    7) = (   0.2500000   0.2500000   0.2500000), wk =   0.2500000
        k(    8) = (   0.2500000   0.2500000  -0.5000000), wk =   0.1250000
        k(    9) = (   0.2500000  -0.5000000  -0.5000000), wk =   0.0625000
        k(   10) = (  -0.5000000  -0.5000000  -0.5000000), wk =   0.0312500
        k(   11) = (   0.2500000   0.0000000   0.0000000), wk =   0.0625000
        k(   12) = (   0.0000000   0.2500000   0.0000000), wk =   0.0625000
        k(   13) = (  -0.5000000   0.0000000   0.0000000), wk =   0.0312500
        k(   14) = (   0.0000000  -0.5000000   0.0000000), wk =   0.0312500
        k(   15) = (   0.2500000   0.0000000  -0.2500000), wk =   0.1250000
        k(   16) = (   0.2500000  -0.2500000   0.0000000), wk =   0.1250000
        k(   17) = (   0.2500000   0.0000000   0.5000000), wk =   0.0625000
        k(   18) = (  -0.5000000  -0.2500000   0.0000000), wk =   0.0625000
        k(   19) = (   0.0000000  -0.5000000   0.2500000), wk =   0.0625000
        k(   20) = (   0.2500000  -0.5000000   0.0000000), wk =   0.0625000
        k(   21) = (  -0.5000000   0.0000000   0.2500000), wk =   0.0625000
        k(   22) = (  -0.5000000   0.0000000   0.5000000), wk =   0.0312500
        k(   23) = (  -0.5000000   0.5000000   0.0000000), wk =   0.0312500
        k(   24) = (  -0.5000000  -0.2500000   0.2500000), wk =   0.1250000
        k(   25) = (  -0.2500000  -0.5000000   0.2500000), wk =   0.1250000
        k(   26) = (  -0.5000000   0.2500000   0.5000000), wk =   0.0625000
        k(   27) = (  -0.5000000   0.5000000   0.2500000), wk =   0.0625000

                       cryst. coord.
        k(    1) = (   0.0000000   0.0000000   0.0000000), wk =   0.0312500
        k(    2) = (   0.0000000   0.0000000   0.2500000), wk =   0.0625000
        k(    3) = (   0.0000000   0.0000000  -0.5000000), wk =   0.0312500
        k(    4) = (   0.0000000   0.2500000   0.2500000), wk =   0.1250000
        k(    5) = (   0.0000000   0.2500000  -0.5000000), wk =   0.0625000
        k(    6) = (   0.0000000  -0.5000000  -0.5000000), wk =   0.0312500
        k(    7) = (   0.2500000   0.2500000   0.2500000), wk =   0.2500000
        k(    8) = (   0.2500000   0.2500000  -0.5000000), wk =   0.1250000
        k(    9) = (   0.2500000  -0.5000000  -0.5000000), wk =   0.0625000
        k(   10) = (  -0.5000000  -0.5000000  -0.5000000), wk =   0.0312500
        k(   11) = (   0.2500000   0.0000000   0.0000000), wk =   0.0625000
        k(   12) = (   0.0000000   0.2500000   0.0000000), wk =   0.0625000
        k(   13) = (  -0.5000000   0.0000000   0.0000000), wk =   0.0312500
        k(   14) = (   0.0000000  -0.5000000   0.0000000), wk =   0.0312500
        k(   15) = (   0.2500000   0.0000000  -0.2500000), wk =   0.1250000
        k(   16) = (   0.2500000  -0.2500000   0.0000000), wk =   0.1250000
        k(   17) = (   0.2500000   0.0000000   0.5000000), wk =   0.0625000
        k(   18) = (  -0.5000000  -0.2500000   0.0000000), wk =   0.0625000
        k(   19) = (   0.0000000  -0.5000000   0.2500000), wk =   0.0625000
        k(   20) = (   0.2500000  -0.5000000   0.0000000), wk =   0.0625000
        k(   21) = (  -0.5000000   0.0000000   0.2500000), wk =   0.0625000
        k(   22) = (  -0.5000000   0.0000000   0.5000000), wk =   0.0312500
        k(   23) = (  -0.5000000   0.5000000   0.0000000), wk =   0.0312500
        k(   24) = (  -0.5000000  -0.2500000   0.2500000), wk =   0.1250000
        k(   25) = (  -0.2500000  -0.5000000   0.2500000), wk =   0.1250000
        k(   26) = (  -0.5000000   0.2500000   0.5000000), wk =   0.0625000
        k(   27) = (  -0.5000000   0.5000000   0.2500000), wk =   0.0625000

     Dense  grid:    54339 G-vectors     FFT dimensions: (  48,  48,  48)

     Smooth grid:    19213 G-vectors     FFT dimensions: (  36,  36,  36)

     Dynamical RAM for                 wfc:       0.58 MB

     Dynamical RAM for     wfc (w. buffer):      16.34 MB

     Dynamical RAM for           str. fact:       1.66 MB

     Dynamical RAM for           local pot:       0.00 MB

     Dynamical RAM for          nlocal pot:       1.24 MB

     Dynamical RAM for                qrad:       3.21 MB

     Dynamical RAM for          rho,v,vnew:       5.02 MB

     Dynamical RAM for               rhoin:       1.67 MB

     Dynamical RAM for            rho*nmix:      13.27 MB

     Dynamical RAM for           G-vectors:       3.26 MB

     Dynamical RAM for          h,s,v(r/c):       0.05 MB

     Dynamical RAM for          <psi|beta>:       0.01 MB

     Dynamical RAM for                 psi:       1.17 MB

     Dynamical RAM for                hpsi:       1.17 MB

     Dynamical RAM for                spsi:       1.17 MB

     Dynamical RAM for      wfcinit/wfcrot:       1.32 MB

     Dynamical RAM for           addusdens:     155.88 MB

     Estimated static dynamical RAM per process >      39.10 MB

     Estimated max dynamical RAM per process >     208.25 MB

     Check: negative core charge=   -0.000007

     Initial potential from superposition of free atoms

     starting charge      23.9985, renormalised to      24.0000
     Starting wfcs are   18 randomized atomic wfcs

     total cpu time spent up to now is        1.8 secs

     Self-consistent Calculation

     iteration #  1     ecut=    50.00 Ry     beta= 0.70
     Davidson diagonalization with overlap

---- Real-time Memory Report at c_bands before calling an iterative solver
           209 MiB given to the printing process from OS
             0 MiB allocation reported by mallinfo(arena+hblkhd)
          4425 MiB available memory on the node where the printing process lives
------------------
     ethr =  1.00E-02,  avg # of iterations =  6.0

     total cpu time spent up to now is        4.3 secs

     total energy              =    3529.28960885 Ry
     estimated scf accuracy    <       7.49192945 Ry

     iteration #  2     ecut=    50.00 Ry     beta= 0.70
     Davidson diagonalization with overlap

---- Real-time Memory Report at c_bands before calling an iterative solver
           261 MiB given to the printing process from OS
             0 MiB allocation reported by mallinfo(arena+hblkhd)
          4503 MiB available memory on the node where the printing process lives
------------------
     ethr =  1.00E-02,  avg # of iterations =  5.7

     total cpu time spent up to now is        7.0 secs

     total energy              =    3526.51163571 Ry
     estimated scf accuracy    <       9.62442536 Ry

     iteration #  3     ecut=    50.00 Ry     beta= 0.70
     Davidson diagonalization with overlap

---- Real-time Memory Report at c_bands before calling an iterative solver
           263 MiB given to the printing process from OS
             0 MiB allocation reported by mallinfo(arena+hblkhd)
          4503 MiB available memory on the node where the printing process lives
------------------
     ethr =  1.00E-02,  avg # of iterations =  3.3

     total cpu time spent up to now is        8.8 secs

     total energy              =    3526.86036354 Ry
     estimated scf accuracy    <       1.62032140 Ry

     iteration #  4     ecut=    50.00 Ry     beta= 0.70
     Davidson diagonalization with overlap

---- Real-time Memory Report at c_bands before calling an iterative solver
           264 MiB given to the printing process from OS
             0 MiB allocation reported by mallinfo(arena+hblkhd)
          4503 MiB available memory on the node where the printing process lives
------------------
     ethr =  6.75E-03,  avg # of iterations =  6.1
     Minimization algorithm failed to find Fermi energy: reverting to bisection
     Possible cause: smearing is larger than the electronic band-gap.

     total cpu time spent up to now is       11.3 secs

     total energy              =    3527.78598116 Ry
     estimated scf accuracy    <      15.04621221 Ry

     iteration #  5     ecut=    50.00 Ry     beta= 0.70
     Davidson diagonalization with overlap

---- Real-time Memory Report at c_bands before calling an iterative solver
           267 MiB given to the printing process from OS
             0 MiB allocation reported by mallinfo(arena+hblkhd)
          4499 MiB available memory on the node where the printing process lives
------------------
     ethr =  6.75E-03,  avg # of iterations =  3.9

     total cpu time spent up to now is       13.1 secs

     total energy              =    3525.88967123 Ry
     estimated scf accuracy    <       0.14818708 Ry

     iteration #  6     ecut=    50.00 Ry     beta= 0.70
     Davidson diagonalization with overlap

---- Real-time Memory Report at c_bands before calling an iterative solver
           267 MiB given to the printing process from OS
             0 MiB allocation reported by mallinfo(arena+hblkhd)
          4498 MiB available memory on the node where the printing process lives
------------------
     ethr =  6.17E-04,  avg # of iterations =  4.6

     total cpu time spent up to now is       15.1 secs

     total energy              =    3525.98213760 Ry
     estimated scf accuracy    <       0.52449472 Ry

     iteration #  7     ecut=    50.00 Ry     beta= 0.70
     Davidson diagonalization with overlap

---- Real-time Memory Report at c_bands before calling an iterative solver
           268 MiB given to the printing process from OS
             0 MiB allocation reported by mallinfo(arena+hblkhd)
          4498 MiB available memory on the node where the printing process lives
------------------
     ethr =  6.17E-04,  avg # of iterations =  3.1

     total cpu time spent up to now is       16.8 secs

     total energy              =    3525.94262467 Ry
     estimated scf accuracy    <       0.03152358 Ry

     iteration #  8     ecut=    50.00 Ry     beta= 0.70
     Davidson diagonalization with overlap

---- Real-time Memory Report at c_bands before calling an iterative solver
           269 MiB given to the printing process from OS
             0 MiB allocation reported by mallinfo(arena+hblkhd)
          4497 MiB available memory on the node where the printing process lives
------------------
     ethr =  1.31E-04,  avg # of iterations =  3.7

     total cpu time spent up to now is       18.4 secs

     total energy              =    3525.94381223 Ry
     estimated scf accuracy    <       0.01880680 Ry

     iteration #  9     ecut=    50.00 Ry     beta= 0.70
     Davidson diagonalization with overlap

---- Real-time Memory Report at c_bands before calling an iterative solver
           269 MiB given to the printing process from OS
             0 MiB allocation reported by mallinfo(arena+hblkhd)
          4496 MiB available memory on the node where the printing process lives
------------------
     ethr =  7.84E-05,  avg # of iterations =  4.4

     total cpu time spent up to now is       20.0 secs

     total energy              =    3525.94170546 Ry
     estimated scf accuracy    <       0.00180831 Ry

     iteration # 10     ecut=    50.00 Ry     beta= 0.70
     Davidson diagonalization with overlap

---- Real-time Memory Report at c_bands before calling an iterative solver
           270 MiB given to the printing process from OS
             0 MiB allocation reported by mallinfo(arena+hblkhd)
          4496 MiB available memory on the node where the printing process lives
------------------
     c_bands:  1 eigenvalues not converged
     ethr =  7.53E-06,  avg # of iterations =  6.9

     total cpu time spent up to now is       22.1 secs

     total energy              =    3525.94153022 Ry
     estimated scf accuracy    <       0.00075467 Ry

     iteration # 11     ecut=    50.00 Ry     beta= 0.70
     Davidson diagonalization with overlap

---- Real-time Memory Report at c_bands before calling an iterative solver
           270 MiB given to the printing process from OS
             0 MiB allocation reported by mallinfo(arena+hblkhd)
          4495 MiB available memory on the node where the printing process lives
------------------
     ethr =  3.14E-06,  avg # of iterations =  2.9

     total cpu time spent up to now is       23.9 secs

     total energy              =    3525.94153285 Ry
     estimated scf accuracy    <       0.00059368 Ry

     iteration # 12     ecut=    50.00 Ry     beta= 0.70
     Davidson diagonalization with overlap

---- Real-time Memory Report at c_bands before calling an iterative solver
           270 MiB given to the printing process from OS
             0 MiB allocation reported by mallinfo(arena+hblkhd)
          4495 MiB available memory on the node where the printing process lives
------------------
     ethr =  2.47E-06,  avg # of iterations =  2.8

     total cpu time spent up to now is       25.4 secs

     total energy              =    3525.94155770 Ry
     estimated scf accuracy    <       0.00025852 Ry

     iteration # 13     ecut=    50.00 Ry     beta= 0.70
     Davidson diagonalization with overlap

---- Real-time Memory Report at c_bands before calling an iterative solver
           270 MiB given to the printing process from OS
             0 MiB allocation reported by mallinfo(arena+hblkhd)
          4495 MiB available memory on the node where the printing process lives
------------------
     ethr =  1.08E-06,  avg # of iterations =  2.0

     total cpu time spent up to now is       27.0 secs

     total energy              =    3525.94153407 Ry
     estimated scf accuracy    <       0.00002095 Ry

     iteration # 14     ecut=    50.00 Ry     beta= 0.70
     Davidson diagonalization with overlap

---- Real-time Memory Report at c_bands before calling an iterative solver
           270 MiB given to the printing process from OS
             0 MiB allocation reported by mallinfo(arena+hblkhd)
          4495 MiB available memory on the node where the printing process lives
------------------
     ethr =  8.73E-08,  avg # of iterations =  4.4

     total cpu time spent up to now is       28.6 secs

     total energy              =    3525.94153274 Ry
     estimated scf accuracy    <       0.00001256 Ry

     iteration # 15     ecut=    50.00 Ry     beta= 0.70
     Davidson diagonalization with overlap

---- Real-time Memory Report at c_bands before calling an iterative solver
           270 MiB given to the printing process from OS
             0 MiB allocation reported by mallinfo(arena+hblkhd)
          4495 MiB available memory on the node where the printing process lives
------------------
     ethr =  5.23E-08,  avg # of iterations =  2.5

     total cpu time spent up to now is       30.4 secs

     total energy              =    3525.94153215 Ry
     estimated scf accuracy    <       0.00000292 Ry

     iteration # 16     ecut=    50.00 Ry     beta= 0.70
     Davidson diagonalization with overlap

---- Real-time Memory Report at c_bands before calling an iterative solver
           270 MiB given to the printing process from OS
             0 MiB allocation reported by mallinfo(arena+hblkhd)
          4495 MiB available memory on the node where the printing process lives
------------------
     ethr =  1.22E-08,  avg # of iterations =  6.8

     total cpu time spent up to now is       32.6 secs

     total energy              =    3525.94153873 Ry
     estimated scf accuracy    <       0.00004171 Ry

     iteration # 17     ecut=    50.00 Ry     beta= 0.70
     Davidson diagonalization with overlap

---- Real-time Memory Report at c_bands before calling an iterative solver
           270 MiB given to the printing process from OS
             0 MiB allocation reported by mallinfo(arena+hblkhd)
          4495 MiB available memory on the node where the printing process lives
------------------
     ethr =  1.22E-08,  avg # of iterations =  5.8

     total cpu time spent up to now is       34.8 secs

     total energy              =    3525.94153183 Ry
     estimated scf accuracy    <       0.00000804 Ry

     iteration # 18     ecut=    50.00 Ry     beta= 0.70
     Davidson diagonalization with overlap

---- Real-time Memory Report at c_bands before calling an iterative solver
           270 MiB given to the printing process from OS
             0 MiB allocation reported by mallinfo(arena+hblkhd)
          4495 MiB available memory on the node where the printing process lives
------------------
     ethr =  1.22E-08,  avg # of iterations =  2.6

     total cpu time spent up to now is       36.5 secs

     total energy              =    3525.94153125 Ry
     estimated scf accuracy    <       0.00000032 Ry

     iteration # 19     ecut=    50.00 Ry     beta= 0.70
     Davidson diagonalization with overlap

---- Real-time Memory Report at c_bands before calling an iterative solver
           270 MiB given to the printing process from OS
             0 MiB allocation reported by mallinfo(arena+hblkhd)
          4495 MiB available memory on the node where the printing process lives
------------------
     ethr =  1.34E-09,  avg # of iterations =  6.5

     total cpu time spent up to now is       38.5 secs

     total energy              =    3525.94153103 Ry
     estimated scf accuracy    <       0.00000151 Ry

     iteration # 20     ecut=    50.00 Ry     beta= 0.70
     Davidson diagonalization with overlap

---- Real-time Memory Report at c_bands before calling an iterative solver
           270 MiB given to the printing process from OS
             0 MiB allocation reported by mallinfo(arena+hblkhd)
          4495 MiB available memory on the node where the printing process lives
------------------
     ethr =  1.34E-09,  avg # of iterations =  1.0

     total cpu time spent up to now is       39.8 secs

     total energy              =    3525.94153105 Ry
     estimated scf accuracy    <       0.00000100 Ry

     iteration # 21     ecut=    50.00 Ry     beta= 0.70
     Davidson diagonalization with overlap

---- Real-time Memory Report at c_bands before calling an iterative solver
           270 MiB given to the printing process from OS
             0 MiB allocation reported by mallinfo(arena+hblkhd)
          4495 MiB available memory on the node where the printing process lives
------------------
     ethr =  1.34E-09,  avg # of iterations =  1.1

     total cpu time spent up to now is       41.2 secs

     total energy              =    3525.94153081 Ry
     estimated scf accuracy    <       0.00000074 Ry

     iteration # 22     ecut=    50.00 Ry     beta= 0.70
     Davidson diagonalization with overlap

---- Real-time Memory Report at c_bands before calling an iterative solver
           270 MiB given to the printing process from OS
             0 MiB allocation reported by mallinfo(arena+hblkhd)
          4495 MiB available memory on the node where the printing process lives
------------------
     ethr =  1.34E-09,  avg # of iterations =  3.3

     total cpu time spent up to now is       43.0 secs

     total energy              =    3525.94153139 Ry
     estimated scf accuracy    <       0.00000485 Ry

     iteration # 23     ecut=    50.00 Ry     beta= 0.70
     Davidson diagonalization with overlap

---- Real-time Memory Report at c_bands before calling an iterative solver
           270 MiB given to the printing process from OS
             0 MiB allocation reported by mallinfo(arena+hblkhd)
          4495 MiB available memory on the node where the printing process lives
------------------
     ethr =  1.34E-09,  avg # of iterations =  5.0

     total cpu time spent up to now is       44.9 secs

     total energy              =    3525.94153123 Ry
     estimated scf accuracy    <       0.00000043 Ry

     iteration # 24     ecut=    50.00 Ry     beta= 0.70
     Davidson diagonalization with overlap

---- Real-time Memory Report at c_bands before calling an iterative solver
           270 MiB given to the printing process from OS
             0 MiB allocation reported by mallinfo(arena+hblkhd)
          4495 MiB available memory on the node where the printing process lives
------------------
     ethr =  1.34E-09,  avg # of iterations =  3.1

     total cpu time spent up to now is       46.4 secs

     End of self-consistent calculation

          k = 0.0000 0.0000 0.0000 (  2373 PWs)   bands (ev):

   -86.6149 -86.5661 -86.5571 -50.4129 -32.2582 -26.9415 -26.5448 -26.5447
     3.0188   5.5584   6.4241   6.6937   6.7000   6.7260   7.1381   7.7570

     occupation numbers 
     1.0000   1.0000   1.0000   1.0000   1.0000   1.0000   1.0000   1.0000
     1.0000   1.0000   1.0052   0.6212   0.5831   0.4222  -0.0000  -0.0000

          k = 0.0000 0.0000 0.2500 (  2409 PWs)   bands (ev):

   -86.6159 -86.5766 -86.5676 -50.4126 -32.2603 -26.9484 -26.5446 -26.5444
     3.1355   5.3139   5.6708   6.7462   6.8779   6.8787   7.5997   7.6000

     occupation numbers 
     1.0000   1.0000   1.0000   1.0000   1.0000   1.0000   1.0000   1.0000
     1.0000   1.0000   1.0000   0.3026  -0.0354  -0.0354  -0.0000  -0.0000

          k = 0.0000 0.0000-0.5000 (  2392 PWs)   bands (ev):

   -86.6160 -86.5709 -86.5618 -50.4122 -32.2546 -26.9554 -26.5438 -26.5437
     3.2127   4.6901   5.7905   6.7749   7.2505   7.2509   7.2649   7.2651

     occupation numbers 
     1.0000   1.0000   1.0000   1.0000   1.0000   1.0000   1.0000   1.0000
     1.0000   1.0000   1.0000   0.1576  -0.0000  -0.0000  -0.0000  -0.0000

          k = 0.0000 0.2500 0.2500 (  2382 PWs)   bands (ev):

   -86.6150 -86.5663 -86.5618 -50.4119 -32.2592 -26.9477 -26.5437 -26.5411
     2.8848   4.4283   5.4428   6.1290   7.0354   7.6046   8.2697   8.6288

     occupation numbers 
     1.0000   1.0000   1.0000   1.0000   1.0000   1.0000   1.0000   1.0000
     1.0000   1.0000   1.0000   1.0000  -0.0021  -0.0000  -0.0000  -0.0000

          k = 0.0000 0.2500-0.5000 (  2366 PWs)   bands (ev):

   -86.6145 -86.5634 -86.5549 -50.4116 -32.2535 -26.9546 -26.5429 -26.5404
     3.4729   3.5432   5.5643   6.1737   7.1262   7.4076   8.4748   8.9323

     occupation numbers 
     1.0000   1.0000   1.0000   1.0000   1.0000   1.0000   1.0000   1.0000
     1.0000   1.0000   1.0000   1.0000  -0.0001  -0.0000  -0.0000  -0.0000

          k = 0.0000-0.5000-0.5000 (  2408 PWs)   bands (ev):

   -86.6196 -86.5708 -86.5681 -50.4110 -32.2627 -26.9541 -26.5426 -26.5376
     2.7867   3.7972   5.0658   6.9972   7.5822   7.7143   8.1053   8.6567

     occupation numbers 
     1.0000   1.0000   1.0000   1.0000   1.0000   1.0000   1.0000   1.0000
     1.0000   1.0000   1.0000  -0.0060  -0.0000  -0.0000  -0.0000  -0.0000

          k = 0.2500 0.2500 0.2500 (  2401 PWs)   bands (ev):

   -86.6204 -86.5716 -86.5625 -50.4114 -32.2591 -26.9473 -26.5530 -26.5406
     3.0504   4.4686   4.8210   6.4898   7.0775   7.2445   8.3814   8.4618

     occupation numbers 
     1.0000   1.0000   1.0000   1.0000   1.0000   1.0000   1.0000   1.0000
     1.0000   1.0000   1.0000   1.0211  -0.0005  -0.0000  -0.0000  -0.0000

          k = 0.2500 0.2500-0.5000 (  2386 PWs)   bands (ev):

   -86.6166 -86.5685 -86.5595 -50.4111 -32.2536 -26.9540 -26.5523 -26.5399
     3.6349   3.8101   4.8090   6.5160   6.6146   8.0211   8.4589   8.4647

     occupation numbers 
     1.0000   1.0000   1.0000   1.0000   1.0000   1.0000   1.0000   1.0000
     1.0000   1.0000   1.0000   1.0298   0.9687  -0.0000  -0.0000  -0.0000

          k = 0.2500-0.5000-0.5000 (  2392 PWs)   bands (ev):

   -86.6168 -86.5681 -86.5628 -50.4106 -32.2515 -26.9533 -26.5518 -26.5491
     3.4157   4.2798   4.7065   6.3513   7.2150   7.6499   7.9878   8.6357

     occupation numbers 
     1.0000   1.0000   1.0000   1.0000   1.0000   1.0000   1.0000   1.0000
     1.0000   1.0000   1.0000   1.0005  -0.0000  -0.0000  -0.0000  -0.0000

          k =-0.5000-0.5000-0.5000 (  2440 PWs)   bands (ev):

   -86.6279 -86.5792 -86.5701 -50.4102 -32.2496 -26.9529 -26.5613 -26.5612
     4.4020   4.4020   5.3826   6.0465   6.0473   6.8308   7.2625   9.2947

     occupation numbers 
     1.0000   1.0000   1.0000   1.0000   1.0000   1.0000   1.0000   1.0000
     1.0000   1.0000   1.0000   1.0000   1.0000  -0.0044  -0.0000  -0.0000

          k = 0.2500 0.0000 0.0000 (  2409 PWs)   bands (ev):

   -86.6253 -86.5766 -86.5581 -50.4123 -32.2671 -26.9412 -26.5443 -26.5419
     2.5820   5.1479   5.3325   6.5662   6.5749   8.0394   8.7332   8.7979

     occupation numbers 
     1.0000   1.0000   1.0000   1.0000   1.0000   1.0000   1.0000   1.0000
     1.0000   1.0000   1.0000   1.0317   1.0269  -0.0000  -0.0000  -0.0000

          k = 0.0000 0.2500 0.0000 (  2409 PWs)   bands (ev):

   -86.6253 -86.5675 -86.5671 -50.4123 -32.2667 -26.9412 -26.5444 -26.5417
     2.5818   5.1491   5.3324   6.5661   6.5749   8.0388   8.7336   8.7977

     occupation numbers 
     1.0000   1.0000   1.0000   1.0000   1.0000   1.0000   1.0000   1.0000
     1.0000   1.0000   1.0000   1.0317   1.0269  -0.0000  -0.0000  -0.0000

          k =-0.5000 0.0000 0.0000 (  2392 PWs)   bands (ev):

   -86.6196 -86.5708 -86.5582 -50.4117 -32.2675 -26.9404 -26.5434 -26.5388
     2.0700   4.8503   5.8363   6.2916   6.5828   7.9348   8.2024   9.9104

     occupation numbers 
     1.0000   1.0000   1.0000   1.0000   1.0000   1.0000   1.0000   1.0000
     1.0000   1.0000   1.0000   1.0001   1.0205  -0.0000  -0.0000  -0.0000

          k = 0.0000-0.5000 0.0000 (  2392 PWs)   bands (ev):

   -86.6196 -86.5672 -86.5618 -50.4117 -32.2673 -26.9404 -26.5436 -26.5387
     2.0699   4.8502   5.8378   6.2916   6.5828   7.9348   8.2025   9.9106

     occupation numbers 
     1.0000   1.0000   1.0000   1.0000   1.0000   1.0000   1.0000   1.0000
     1.0000   1.0000   1.0000   1.0001   1.0205  -0.0000  -0.0000  -0.0000

          k = 0.2500 0.0000-0.2500 (  2382 PWs)   bands (ev):

   -86.6150 -86.5708 -86.5573 -50.4119 -32.2593 -26.9477 -26.5435 -26.5412
     2.8849   4.4280   5.4429   6.1285   7.0352   7.6048   8.2696   8.6285

     occupation numbers 
     1.0000   1.0000   1.0000   1.0000   1.0000   1.0000   1.0000   1.0000
     1.0000   1.0000   1.0000   1.0000  -0.0021  -0.0000  -0.0000  -0.0000

          k = 0.2500-0.2500 0.0000 (  2382 PWs)   bands (ev):

   -86.6195 -86.5662 -86.5572 -50.4118 -32.2596 -26.9404 -26.5534 -26.5410
     2.7519   4.2212   5.8549   6.6714   6.7398   7.4718   8.2724   8.7715

     occupation numbers 
     1.0000   1.0000   1.0000   1.0000   1.0000   1.0000   1.0000   1.0000
     1.0000   1.0000   1.0000   0.7482   0.3392  -0.0000  -0.0000  -0.0000

          k = 0.2500 0.0000 0.5000 (  2366 PWs)   bands (ev):

   -86.6145 -86.5639 -86.5544 -50.4116 -32.2535 -26.9546 -26.5428 -26.5405
     3.4728   3.5434   5.5644   6.1729   7.1256   7.4079   8.4747   8.9316

     occupation numbers 
     1.0000   1.0000   1.0000   1.0000   1.0000   1.0000   1.0000   1.0000
     1.0000   1.0000   1.0000   1.0000  -0.0001  -0.0000  -0.0000  -0.0000

          k =-0.5000-0.2500 0.0000 (  2366 PWs)   bands (ev):

   -86.6127 -86.5634 -86.5567 -50.4113 -32.2538 -26.9395 -26.5526 -26.5504
     2.6858   4.1039   6.3791   6.6289   6.6856   7.5091   8.1344   9.0781

     occupation numbers 
     1.0000   1.0000   1.0000   1.0000   1.0000   1.0000   1.0000   1.0000
     1.0000   1.0000   1.0014   0.9292   0.6691  -0.0000  -0.0000  -0.0000

          k = 0.0000-0.5000 0.2500 (  2366 PWs)   bands (ev):

   -86.6121 -86.5656 -86.5549 -50.4113 -32.2598 -26.9470 -26.5428 -26.5380
     2.3926   4.4720   4.9551   6.8052   7.3076   7.7468   8.2051   8.9326

     occupation numbers 
     1.0000   1.0000   1.0000   1.0000   1.0000   1.0000   1.0000   1.0000
     1.0000   1.0000   1.0000   0.0493  -0.0000  -0.0000  -0.0000  -0.0000

          k = 0.2500-0.5000 0.0000 (  2366 PWs)   bands (ev):

   -86.6127 -86.5657 -86.5544 -50.4113 -32.2540 -26.9395 -26.5527 -26.5502
     2.6858   4.1040   6.3796   6.6289   6.6856   7.5094   8.1346   9.0779

     occupation numbers 
     1.0000   1.0000   1.0000   1.0000   1.0000   1.0000   1.0000   1.0000
     1.0000   1.0000   1.0014   0.9294   0.6691  -0.0000  -0.0000  -0.0000

          k =-0.5000 0.0000 0.2500 (  2366 PWs)   bands (ev):

   -86.6121 -86.5639 -86.5566 -50.4113 -32.2597 -26.9470 -26.5426 -26.5381
     2.3927   4.4717   4.9551   6.8050   7.3064   7.7469   8.2050   8.9330

     occupation numbers 
     1.0000   1.0000   1.0000   1.0000   1.0000   1.0000   1.0000   1.0000
     1.0000   1.0000   1.0000   0.0499  -0.0000  -0.0000  -0.0000  -0.0000

          k =-0.5000 0.0000 0.5000 (  2408 PWs)   bands (ev):

   -86.6196 -86.5772 -86.5618 -50.4110 -32.2629 -26.9541 -26.5425 -26.5378
     2.7868   3.7972   5.0658   6.9961   7.5823   7.7129   8.1051   8.6567

     occupation numbers 
     1.0000   1.0000   1.0000   1.0000   1.0000   1.0000   1.0000   1.0000
     1.0000   1.0000   1.0000  -0.0062  -0.0000  -0.0000  -0.0000  -0.0000

          k =-0.5000 0.5000 0.0000 (  2408 PWs)   bands (ev):

   -86.6259 -86.5709 -86.5618 -50.4109 -32.2511 -26.9393 -26.5623 -26.5622
     3.6579   3.6579   6.5460   6.5528   7.1899   7.1903   7.2010   8.5406

     occupation numbers 
     1.0000   1.0000   1.0000   1.0000   1.0000   1.0000   1.0000   1.0000
     1.0000   1.0000   1.0355   1.0351  -0.0000  -0.0000  -0.0000  -0.0000

          k =-0.5000-0.2500 0.2500 (  2386 PWs)   bands (ev):

   -86.6173 -86.5686 -86.5588 -50.4109 -32.2538 -26.9465 -26.5521 -26.5499
     3.0059   4.2659   5.1754   6.7820   7.0963   7.4248   8.1006   8.1905

     occupation numbers 
     1.0000   1.0000   1.0000   1.0000   1.0000   1.0000   1.0000   1.0000
     1.0000   1.0000   1.0000   0.1279  -0.0003  -0.0000  -0.0000  -0.0000

          k =-0.2500-0.5000 0.2500 (  2386 PWs)   bands (ev):

   -86.6173 -86.5678 -86.5595 -50.4109 -32.2539 -26.9465 -26.5523 -26.5497
     3.0059   4.2660   5.1753   6.7823   7.0966   7.4249   8.1003   8.1906

     occupation numbers 
     1.0000   1.0000   1.0000   1.0000   1.0000   1.0000   1.0000   1.0000
     1.0000   1.0000   1.0000   0.1263  -0.0003  -0.0000  -0.0000  -0.0000

          k =-0.5000 0.2500 0.5000 (  2392 PWs)   bands (ev):

   -86.6168 -86.5719 -86.5591 -50.4106 -32.2517 -26.9533 -26.5517 -26.5493
     3.4157   4.2798   4.7065   6.3506   7.2146   7.6503   7.9876   8.6358

     occupation numbers 
     1.0000   1.0000   1.0000   1.0000   1.0000   1.0000   1.0000   1.0000
     1.0000   1.0000   1.0000   1.0005  -0.0000  -0.0000  -0.0000  -0.0000

          k =-0.5000 0.5000 0.2500 (  2392 PWs)   bands (ev):

   -86.6206 -86.5680 -86.5590 -50.4105 -32.2457 -26.9459 -26.5616 -26.5615
     3.9533   3.9533   6.1048   6.6994   6.7000   6.9621   7.2258   7.3597

     occupation numbers 
     1.0000   1.0000   1.0000   1.0000   1.0000   1.0000   1.0000   1.0000
     1.0000   1.0000   1.0000   0.5865   0.5829  -0.0134  -0.0000  -0.0000

     the Fermi energy is     6.7134 ev

!    total energy              =    3525.94153117 Ry
     estimated scf accuracy    <          7.6E-10 Ry
     smearing contrib. (-TS)   =      -0.00047247 Ry
     internal energy E=F+TS    =    3525.94200364 Ry

     The total energy is F=E-TS. E is the sum of the following terms:
     one-electron contribution =    -183.60597864 Ry
     hartree contribution      =      82.48571435 Ry
     xc contribution           =     -35.69305486 Ry
     ewald contribution        =    3662.75532279 Ry

     convergence has been achieved in  24 iterations

     Writing all to output data dir ./tmp/tio2_ecut50.save/

     init_run     :      1.60s CPU      1.66s WALL (       1 calls)
     electrons    :     42.35s CPU     44.66s WALL (       1 calls)

     Called by init_run:
     wfcinit      :      0.68s CPU      0.68s WALL (       1 calls)
     wfcinit:atom :      0.01s CPU      0.01s WALL (      27 calls)
     wfcinit:wfcr :      0.62s CPU      0.62s WALL (      27 calls)
     potinit      :      0.30s CPU      0.30s WALL (       1 calls)
     hinit0       :      0.55s CPU      0.56s WALL (       1 calls)

     Called by electrons:
     c_bands      :     33.88s CPU     34.19s WALL (      24 calls)
     sum_band     :      5.70s CPU      7.06s WALL (      24 calls)
     v_of_rho     :      0.93s CPU      0.94s WALL (      25 calls)
     v_h          :      0.04s CPU      0.04s WALL (      25 calls)
     v_xc         :      0.89s CPU      0.90s WALL (      25 calls)
     newd         :      1.77s CPU      2.46s WALL (      25 calls)
     mix_rho      :      0.11s CPU      0.11s WALL (      24 calls)

     Called by c_bands:
     init_us_2    :      0.61s CPU      0.61s WALL (    1323 calls)
     init_us_2:cp :      0.61s CPU      0.61s WALL (    1323 calls)
     cegterg      :     32.55s CPU     32.83s WALL (     648 calls)

     Called by sum_band:
     sum_band:wei :      0.01s CPU      0.01s WALL (      24 calls)
     sum_band:loo :      3.68s CPU      3.71s WALL (      24 calls)
     sum_band:buf :      0.04s CPU      0.04s WALL (     648 calls)
     sum_band:ini :      0.29s CPU      0.29s WALL (     648 calls)
     sum_band:cal :      1.05s CPU      1.08s WALL (     648 calls)
     sum_band:bec :      0.01s CPU      0.01s WALL (     648 calls)
     addusdens    :      1.93s CPU      3.26s WALL (      24 calls)
                                        0.00s GPU  (      24 calls)
     addusd:skk   :      0.01s CPU      0.01s WALL (      48 calls)
                                        0.00s GPU  (      48 calls)

     Called by *egterg:
     cdiaghg      :      0.70s CPU      0.70s WALL (    3279 calls)
     cegterg:over :      3.01s CPU      3.02s WALL (    2631 calls)
     cegterg:upda :      1.93s CPU      1.95s WALL (    2631 calls)
     cegterg:last :      4.52s CPU      4.58s WALL (    1413 calls)
     h_psi        :     18.56s CPU     18.71s WALL (    3306 calls)
     s_psi        :      2.97s CPU      3.00s WALL (    3306 calls)
     g_psi        :      0.13s CPU      0.13s WALL (    2631 calls)

     Called by h_psi:
     h_psi:calbec :      2.97s CPU      2.97s WALL (    3306 calls)
     vloc_psi     :     12.51s CPU     12.63s WALL (    3306 calls)
     add_vuspsi   :      2.98s CPU      3.00s WALL (    3306 calls)

     General routines
     calbec       :      4.01s CPU      4.04s WALL (    3954 calls)
     fft          :      0.55s CPU      0.55s WALL (     323 calls)
     ffts         :      0.22s CPU      0.22s WALL (      49 calls)
     fftw         :     11.52s CPU     11.62s WALL (   65818 calls)
     interpolate  :      0.24s CPU      0.24s WALL (      25 calls)

     Parallel routines

     PWSCF        :     44.06s CPU     46.45s WALL


   This run was terminated on:  21:20:42  17Jul2025            

=------------------------------------------------------------------------------=
   JOB DONE.
=------------------------------------------------------------------------------=
