
     Program PWSCF v.7.2 starts on 17Jul2025 at 21:33:32 

     This program is part of the open-source Quantum ESPRESSO suite
     for quantum simulation of materials; please cite
         "P. Giannozzi et al., J. Phys.:Condens. Matter 21 395502 (2009);
         "P. Giannozzi et al., J. Phys.:Condens. Matter 29 465901 (2017);
         "P. Giannozzi et al., J. Chem. Phys. 152 154105 (2020);
          URL http://www.quantum-espresso.org", 
     in publications or presentations arising from this work. More details at
     http://www.quantum-espresso.org/quote

     Parallel version (MPI), running on     1 processors

     MPI processes distributed on     1 nodes
     4549 MiB available memory on the printing compute node when the environment starts

     Waiting for input...
     Reading input from standard input

     Current dimensions of program PWSCF are:
     Max number of different atomic species (ntypx) = 10
     Max number of k-points (npk) =  40000
     Max angular momentum in pseudopotentials (lmaxx) =  4
     file Ti.pbe-spn-rrkjus_psl.1.0.0.UPF: wavefunction(s)  3S 3D renormalized

     Subspace diagonalization in iterative solution of the eigenvalue problem:
     a serial algorithm will be used


     G-vector sticks info
     --------------------
     sticks:   dense  smooth     PW     G-vecs:    dense   smooth      PW
     Sum         681     349    121                13613     4945     949

     Using Slab Decomposition



     bravais-lattice index     =            1
     lattice parameter (alat)  =       7.3700  a.u.
     unit-cell volume          =     400.3156 (a.u.)^3
     number of atoms/cell      =            3
     number of atomic types    =            2
     number of electrons       =        24.00
     number of Kohn-Sham states=           16
     kinetic-energy cutoff     =      20.0000  Ry
     charge density cutoff     =     160.0000  Ry
     scf convergence threshold =      1.0E-08
     mixing beta               =       0.7000
     number of iterations used =            8  plain     mixing
     Exchange-correlation= PBE
                           (   1   4   3   4   0   0   0)

     celldm(1)=   7.370000  celldm(2)=   0.000000  celldm(3)=   0.000000
     celldm(4)=   0.000000  celldm(5)=   0.000000  celldm(6)=   0.000000

     crystal axes: (cart. coord. in units of alat)
               a(1) = (   1.000000   0.000000   0.000000 )  
               a(2) = (   0.000000   1.000000   0.000000 )  
               a(3) = (   0.000000   0.000000   1.000000 )  

     reciprocal axes: (cart. coord. in units 2 pi/alat)
               b(1) = (  1.000000  0.000000  0.000000 )  
               b(2) = (  0.000000  1.000000  0.000000 )  
               b(3) = (  0.000000  0.000000  1.000000 )  


     PseudoPot. # 1 for Ti read from file:
     ../pseudo/Ti.pbe-spn-rrkjus_psl.1.0.0.UPF
     MD5 check sum: e281089c08e14b8efcf92e44a67ada65
     Pseudo is Ultrasoft + core correction, Zval = 12.0
     Generated using &quot;atomic&quot; code by A. Dal Corso  v.6.2.2
     Using radial grid of 1177 points,  6 beta functions with: 
                l(1) =   0
                l(2) =   0
                l(3) =   1
                l(4) =   1
                l(5) =   2
                l(6) =   2
     Q(r) pseudized with 0 coefficients 


     PseudoPot. # 2 for O  read from file:
     ../pseudo/O.pbe-n-rrkjus_psl.1.0.0.UPF
     MD5 check sum: 91400c9766925bcf19f520983a725ff0
     Pseudo is Ultrasoft + core correction, Zval =  6.0
     Generated using &quot;atomic&quot; code by A. Dal Corso  v.6.3MaX
     Using radial grid of 1095 points,  4 beta functions with: 
                l(1) =   0
                l(2) =   0
                l(3) =   1
                l(4) =   1
     Q(r) pseudized with 0 coefficients 


     atomic species   valence    mass     pseudopotential
        Ti            12.00    47.86700     Ti( 1.00)
        O              6.00    15.99900     O ( 1.00)

      4 Sym. Ops. (no inversion) found


                                    s                        frac. trans.

      isym =  1     identity                                     

 cryst.   s( 1) = (     1          0          0      )
                  (     0          1          0      )
                  (     0          0          1      )

 cart.    s( 1) = (  1.0000000  0.0000000  0.0000000 )
                  (  0.0000000  1.0000000  0.0000000 )
                  (  0.0000000  0.0000000  1.0000000 )


      isym =  2     180 deg rotation - cart. axis [0,1,0]        

 cryst.   s( 2) = (    -1          0          0      )
                  (     0          1          0      )
                  (     0          0         -1      )

 cart.    s( 2) = ( -1.0000000  0.0000000  0.0000000 )
                  (  0.0000000  1.0000000  0.0000000 )
                  (  0.0000000  0.0000000 -1.0000000 )


      isym =  3     inv. 180 deg rotation - cart. axis [0,0,1]   

 cryst.   s( 3) = (     1          0          0      )
                  (     0          1          0      )
                  (     0          0         -1      )

 cart.    s( 3) = (  1.0000000  0.0000000  0.0000000 )
                  (  0.0000000  1.0000000  0.0000000 )
                  (  0.0000000  0.0000000 -1.0000000 )


      isym =  4     inv. 180 deg rotation - cart. axis [1,0,0]   

 cryst.   s( 4) = (    -1          0          0      )
                  (     0          1          0      )
                  (     0          0          1      )

 cart.    s( 4) = ( -1.0000000  0.0000000  0.0000000 )
                  (  0.0000000  1.0000000  0.0000000 )
                  (  0.0000000  0.0000000  1.0000000 )


     point group C_2v (mm2) 
     there are  4 classes
     the character table:

       E     C2    s_v   s_v' 
A_1    1.00  1.00  1.00  1.00
A_2    1.00  1.00 -1.00 -1.00
B_1    1.00 -1.00  1.00 -1.00
B_2    1.00 -1.00 -1.00  1.00

     the symmetry operations in each class and the name of the first element:

     E        1
          identity                                               
     C2       2
          180 deg rotation - cart. axis [0,1,0]                  
     s_v      3
          inv. 180 deg rotation - cart. axis [0,0,1]             
     s_v'     4
          inv. 180 deg rotation - cart. axis [1,0,0]             

   Cartesian axes

     site n.     atom                  positions (alat units)
         1           Ti  tau(   1) = (   0.0000000   0.0000000   0.0000000  )
         2           O   tau(   2) = (   0.4987133   0.4987133   0.0000000  )
         3           O   tau(   3) = (  -0.4987133   0.4987133   0.0000000  )

   Crystallographic axes

     site n.     atom                  positions (cryst. coord.)
         1           Ti  tau(   1) = (  0.0000000  0.0000000  0.0000000  )
         2           O   tau(   2) = (  0.4987133  0.4987133  0.0000000  )
         3           O   tau(   3) = ( -0.4987133  0.4987133  0.0000000  )

     number of k points=    27  Methfessel-Paxton smearing, width (Ry)=  0.0100
                       cart. coord. in units 2pi/alat
        k(    1) = (   0.0000000   0.0000000   0.0000000), wk =   0.0312500
        k(    2) = (   0.0000000   0.0000000   0.2500000), wk =   0.0625000
        k(    3) = (   0.0000000   0.0000000  -0.5000000), wk =   0.0312500
        k(    4) = (   0.0000000   0.2500000   0.2500000), wk =   0.1250000
        k(    5) = (   0.0000000   0.2500000  -0.5000000), wk =   0.0625000
        k(    6) = (   0.0000000  -0.5000000  -0.5000000), wk =   0.0312500
        k(    7) = (   0.2500000   0.2500000   0.2500000), wk =   0.2500000
        k(    8) = (   0.2500000   0.2500000  -0.5000000), wk =   0.1250000
        k(    9) = (   0.2500000  -0.5000000  -0.5000000), wk =   0.0625000
        k(   10) = (  -0.5000000  -0.5000000  -0.5000000), wk =   0.0312500
        k(   11) = (   0.2500000   0.0000000   0.0000000), wk =   0.0625000
        k(   12) = (   0.0000000   0.2500000   0.0000000), wk =   0.0625000
        k(   13) = (  -0.5000000   0.0000000   0.0000000), wk =   0.0312500
        k(   14) = (   0.0000000  -0.5000000   0.0000000), wk =   0.0312500
        k(   15) = (   0.2500000   0.0000000  -0.2500000), wk =   0.1250000
        k(   16) = (   0.2500000  -0.2500000   0.0000000), wk =   0.1250000
        k(   17) = (   0.2500000   0.0000000   0.5000000), wk =   0.0625000
        k(   18) = (  -0.5000000  -0.2500000   0.0000000), wk =   0.0625000
        k(   19) = (   0.0000000  -0.5000000   0.2500000), wk =   0.0625000
        k(   20) = (   0.2500000  -0.5000000   0.0000000), wk =   0.0625000
        k(   21) = (  -0.5000000   0.0000000   0.2500000), wk =   0.0625000
        k(   22) = (  -0.5000000   0.0000000   0.5000000), wk =   0.0312500
        k(   23) = (  -0.5000000   0.5000000   0.0000000), wk =   0.0312500
        k(   24) = (  -0.5000000  -0.2500000   0.2500000), wk =   0.1250000
        k(   25) = (  -0.2500000  -0.5000000   0.2500000), wk =   0.1250000
        k(   26) = (  -0.5000000   0.2500000   0.5000000), wk =   0.0625000
        k(   27) = (  -0.5000000   0.5000000   0.2500000), wk =   0.0625000

                       cryst. coord.
        k(    1) = (   0.0000000   0.0000000   0.0000000), wk =   0.0312500
        k(    2) = (   0.0000000   0.0000000   0.2500000), wk =   0.0625000
        k(    3) = (   0.0000000   0.0000000  -0.5000000), wk =   0.0312500
        k(    4) = (   0.0000000   0.2500000   0.2500000), wk =   0.1250000
        k(    5) = (   0.0000000   0.2500000  -0.5000000), wk =   0.0625000
        k(    6) = (   0.0000000  -0.5000000  -0.5000000), wk =   0.0312500
        k(    7) = (   0.2500000   0.2500000   0.2500000), wk =   0.2500000
        k(    8) = (   0.2500000   0.2500000  -0.5000000), wk =   0.1250000
        k(    9) = (   0.2500000  -0.5000000  -0.5000000), wk =   0.0625000
        k(   10) = (  -0.5000000  -0.5000000  -0.5000000), wk =   0.0312500
        k(   11) = (   0.2500000   0.0000000   0.0000000), wk =   0.0625000
        k(   12) = (   0.0000000   0.2500000   0.0000000), wk =   0.0625000
        k(   13) = (  -0.5000000   0.0000000   0.0000000), wk =   0.0312500
        k(   14) = (   0.0000000  -0.5000000   0.0000000), wk =   0.0312500
        k(   15) = (   0.2500000   0.0000000  -0.2500000), wk =   0.1250000
        k(   16) = (   0.2500000  -0.2500000   0.0000000), wk =   0.1250000
        k(   17) = (   0.2500000   0.0000000   0.5000000), wk =   0.0625000
        k(   18) = (  -0.5000000  -0.2500000   0.0000000), wk =   0.0625000
        k(   19) = (   0.0000000  -0.5000000   0.2500000), wk =   0.0625000
        k(   20) = (   0.2500000  -0.5000000   0.0000000), wk =   0.0625000
        k(   21) = (  -0.5000000   0.0000000   0.2500000), wk =   0.0625000
        k(   22) = (  -0.5000000   0.0000000   0.5000000), wk =   0.0312500
        k(   23) = (  -0.5000000   0.5000000   0.0000000), wk =   0.0312500
        k(   24) = (  -0.5000000  -0.2500000   0.2500000), wk =   0.1250000
        k(   25) = (  -0.2500000  -0.5000000   0.2500000), wk =   0.1250000
        k(   26) = (  -0.5000000   0.2500000   0.5000000), wk =   0.0625000
        k(   27) = (  -0.5000000   0.5000000   0.2500000), wk =   0.0625000

     Dense  grid:    13613 G-vectors     FFT dimensions: (  30,  30,  30)

     Smooth grid:     4945 G-vectors     FFT dimensions: (  24,  24,  24)

     Dynamical RAM for                 wfc:       0.15 MB

     Dynamical RAM for     wfc (w. buffer):       4.14 MB

     Dynamical RAM for           str. fact:       0.42 MB

     Dynamical RAM for           local pot:       0.00 MB

     Dynamical RAM for          nlocal pot:       0.31 MB

     Dynamical RAM for                qrad:       2.03 MB

     Dynamical RAM for          rho,v,vnew:       1.24 MB

     Dynamical RAM for               rhoin:       0.41 MB

     Dynamical RAM for            rho*nmix:       3.32 MB

     Dynamical RAM for           G-vectors:       0.82 MB

     Dynamical RAM for          h,s,v(r/c):       0.05 MB

     Dynamical RAM for          <psi|beta>:       0.01 MB

     Dynamical RAM for                 psi:       0.30 MB

     Dynamical RAM for                hpsi:       0.30 MB

     Dynamical RAM for                spsi:       0.30 MB

     Dynamical RAM for      wfcinit/wfcrot:       0.34 MB

     Dynamical RAM for           addusdens:      39.05 MB

     Estimated static dynamical RAM per process >      11.02 MB

     Estimated max dynamical RAM per process >      53.40 MB

     Check: negative core charge=   -0.000097

     Initial potential from superposition of free atoms

     starting charge      23.9985, renormalised to      24.0000
     Starting wfcs are   18 randomized atomic wfcs

     total cpu time spent up to now is        0.9 secs

     Self-consistent Calculation

     iteration #  1     ecut=    20.00 Ry     beta= 0.70
     Davidson diagonalization with overlap

---- Real-time Memory Report at c_bands before calling an iterative solver
            76 MiB given to the printing process from OS
             0 MiB allocation reported by mallinfo(arena+hblkhd)
          4533 MiB available memory on the node where the printing process lives
------------------
     ethr =  1.00E-02,  avg # of iterations =  5.9

     total cpu time spent up to now is        1.5 secs

     total energy              =    3539.13108629 Ry
     estimated scf accuracy    <       3.31723955 Ry

     iteration #  2     ecut=    20.00 Ry     beta= 0.70
     Davidson diagonalization with overlap

---- Real-time Memory Report at c_bands before calling an iterative solver
            90 MiB given to the printing process from OS
             0 MiB allocation reported by mallinfo(arena+hblkhd)
          4521 MiB available memory on the node where the printing process lives
------------------
     ethr =  1.00E-02,  avg # of iterations =  4.0

     total cpu time spent up to now is        2.0 secs

     total energy              =    3538.63651201 Ry
     estimated scf accuracy    <       1.58126370 Ry

     iteration #  3     ecut=    20.00 Ry     beta= 0.70
     Davidson diagonalization with overlap

---- Real-time Memory Report at c_bands before calling an iterative solver
            91 MiB given to the printing process from OS
             0 MiB allocation reported by mallinfo(arena+hblkhd)
          4520 MiB available memory on the node where the printing process lives
------------------
     ethr =  6.59E-03,  avg # of iterations =  3.4

     total cpu time spent up to now is        2.4 secs

     total energy              =    3538.38587238 Ry
     estimated scf accuracy    <       0.40028185 Ry

     iteration #  4     ecut=    20.00 Ry     beta= 0.70
     Davidson diagonalization with overlap

---- Real-time Memory Report at c_bands before calling an iterative solver
            91 MiB given to the printing process from OS
             0 MiB allocation reported by mallinfo(arena+hblkhd)
          4520 MiB available memory on the node where the printing process lives
------------------
     ethr =  1.67E-03,  avg # of iterations =  2.7

     total cpu time spent up to now is        2.9 secs

     total energy              =    3538.29683209 Ry
     estimated scf accuracy    <       0.07830854 Ry

     iteration #  5     ecut=    20.00 Ry     beta= 0.70
     Davidson diagonalization with overlap

---- Real-time Memory Report at c_bands before calling an iterative solver
            91 MiB given to the printing process from OS
             0 MiB allocation reported by mallinfo(arena+hblkhd)
          4520 MiB available memory on the node where the printing process lives
------------------
     ethr =  3.26E-04,  avg # of iterations =  3.9

     total cpu time spent up to now is        3.3 secs

     total energy              =    3538.27754209 Ry
     estimated scf accuracy    <       0.00587285 Ry

     iteration #  6     ecut=    20.00 Ry     beta= 0.70
     Davidson diagonalization with overlap

---- Real-time Memory Report at c_bands before calling an iterative solver
            91 MiB given to the printing process from OS
             0 MiB allocation reported by mallinfo(arena+hblkhd)
          4520 MiB available memory on the node where the printing process lives
------------------
     ethr =  2.45E-05,  avg # of iterations =  5.3

     total cpu time spent up to now is        3.8 secs

     total energy              =    3538.27629039 Ry
     estimated scf accuracy    <       0.00057151 Ry

     iteration #  7     ecut=    20.00 Ry     beta= 0.70
     Davidson diagonalization with overlap

---- Real-time Memory Report at c_bands before calling an iterative solver
            92 MiB given to the printing process from OS
             0 MiB allocation reported by mallinfo(arena+hblkhd)
          4520 MiB available memory on the node where the printing process lives
------------------
     ethr =  2.38E-06,  avg # of iterations =  4.8

     total cpu time spent up to now is        4.3 secs

     total energy              =    3538.27616460 Ry
     estimated scf accuracy    <       0.00034257 Ry

     iteration #  8     ecut=    20.00 Ry     beta= 0.70
     Davidson diagonalization with overlap

---- Real-time Memory Report at c_bands before calling an iterative solver
            92 MiB given to the printing process from OS
             0 MiB allocation reported by mallinfo(arena+hblkhd)
          4520 MiB available memory on the node where the printing process lives
------------------
     ethr =  1.43E-06,  avg # of iterations =  2.3

     total cpu time spent up to now is        4.7 secs

     total energy              =    3538.27611394 Ry
     estimated scf accuracy    <       0.00000045 Ry

     iteration #  9     ecut=    20.00 Ry     beta= 0.70
     Davidson diagonalization with overlap

---- Real-time Memory Report at c_bands before calling an iterative solver
            92 MiB given to the printing process from OS
             0 MiB allocation reported by mallinfo(arena+hblkhd)
          4519 MiB available memory on the node where the printing process lives
------------------
     ethr =  1.87E-09,  avg # of iterations =  6.4

     total cpu time spent up to now is        5.3 secs

     total energy              =    3538.27610857 Ry
     estimated scf accuracy    <       0.00000153 Ry

     iteration # 10     ecut=    20.00 Ry     beta= 0.70
     Davidson diagonalization with overlap

---- Real-time Memory Report at c_bands before calling an iterative solver
            92 MiB given to the printing process from OS
             0 MiB allocation reported by mallinfo(arena+hblkhd)
          4519 MiB available memory on the node where the printing process lives
------------------
     ethr =  1.87E-09,  avg # of iterations =  3.1

     total cpu time spent up to now is        5.7 secs

     total energy              =    3538.27611253 Ry
     estimated scf accuracy    <       0.00000110 Ry

     iteration # 11     ecut=    20.00 Ry     beta= 0.70
     Davidson diagonalization with overlap

---- Real-time Memory Report at c_bands before calling an iterative solver
            92 MiB given to the printing process from OS
             0 MiB allocation reported by mallinfo(arena+hblkhd)
          4519 MiB available memory on the node where the printing process lives
------------------
     ethr =  1.87E-09,  avg # of iterations =  3.3

     total cpu time spent up to now is        6.2 secs

     total energy              =    3538.27608815 Ry
     estimated scf accuracy    <       0.00000368 Ry

     iteration # 12     ecut=    20.00 Ry     beta= 0.70
     Davidson diagonalization with overlap

---- Real-time Memory Report at c_bands before calling an iterative solver
            92 MiB given to the printing process from OS
             0 MiB allocation reported by mallinfo(arena+hblkhd)
          4519 MiB available memory on the node where the printing process lives
------------------
     ethr =  1.87E-09,  avg # of iterations =  3.8

     total cpu time spent up to now is        6.7 secs

     total energy              =    3538.27607265 Ry
     estimated scf accuracy    <       0.00000300 Ry

     iteration # 13     ecut=    20.00 Ry     beta= 0.70
     Davidson diagonalization with overlap

---- Real-time Memory Report at c_bands before calling an iterative solver
            92 MiB given to the printing process from OS
             0 MiB allocation reported by mallinfo(arena+hblkhd)
          4519 MiB available memory on the node where the printing process lives
------------------
     ethr =  1.87E-09,  avg # of iterations =  3.9

     total cpu time spent up to now is        7.1 secs

     total energy              =    3538.27610410 Ry
     estimated scf accuracy    <       0.00000812 Ry

     iteration # 14     ecut=    20.00 Ry     beta= 0.70
     Davidson diagonalization with overlap

---- Real-time Memory Report at c_bands before calling an iterative solver
            92 MiB given to the printing process from OS
             0 MiB allocation reported by mallinfo(arena+hblkhd)
          4519 MiB available memory on the node where the printing process lives
------------------
     ethr =  1.87E-09,  avg # of iterations =  4.3

     total cpu time spent up to now is        7.7 secs

     total energy              =    3538.27604826 Ry
     estimated scf accuracy    <       0.00002656 Ry

     iteration # 15     ecut=    20.00 Ry     beta= 0.70
     Davidson diagonalization with overlap

---- Real-time Memory Report at c_bands before calling an iterative solver
            92 MiB given to the printing process from OS
             0 MiB allocation reported by mallinfo(arena+hblkhd)
          4519 MiB available memory on the node where the printing process lives
------------------
     ethr =  1.87E-09,  avg # of iterations =  4.4

     total cpu time spent up to now is        8.2 secs

     total energy              =    3538.27604224 Ry
     estimated scf accuracy    <       0.00004524 Ry

     iteration # 16     ecut=    20.00 Ry     beta= 0.70
     Davidson diagonalization with overlap

---- Real-time Memory Report at c_bands before calling an iterative solver
            92 MiB given to the printing process from OS
             0 MiB allocation reported by mallinfo(arena+hblkhd)
          4519 MiB available memory on the node where the printing process lives
------------------
     ethr =  1.87E-09,  avg # of iterations =  5.4

     total cpu time spent up to now is        8.8 secs

     total energy              =    3538.27612956 Ry
     estimated scf accuracy    <       0.00010118 Ry

     iteration # 17     ecut=    20.00 Ry     beta= 0.70
     Davidson diagonalization with overlap

---- Real-time Memory Report at c_bands before calling an iterative solver
            92 MiB given to the printing process from OS
             0 MiB allocation reported by mallinfo(arena+hblkhd)
          4519 MiB available memory on the node where the printing process lives
------------------
     ethr =  1.87E-09,  avg # of iterations =  6.0

     total cpu time spent up to now is        9.4 secs

     total energy              =    3538.27676611 Ry
     estimated scf accuracy    <       0.00024944 Ry

     iteration # 18     ecut=    20.00 Ry     beta= 0.70
     Davidson diagonalization with overlap

---- Real-time Memory Report at c_bands before calling an iterative solver
            92 MiB given to the printing process from OS
             0 MiB allocation reported by mallinfo(arena+hblkhd)
          4519 MiB available memory on the node where the printing process lives
------------------
     ethr =  1.87E-09,  avg # of iterations =  7.1

     total cpu time spent up to now is       10.2 secs

     total energy              =    3538.28001764 Ry
     estimated scf accuracy    <       0.00074384 Ry

     iteration # 19     ecut=    20.00 Ry     beta= 0.70
     Davidson diagonalization with overlap

---- Real-time Memory Report at c_bands before calling an iterative solver
            93 MiB given to the printing process from OS
             0 MiB allocation reported by mallinfo(arena+hblkhd)
          4519 MiB available memory on the node where the printing process lives
------------------
     c_bands:  1 eigenvalues not converged
     ethr =  1.87E-09,  avg # of iterations =  8.8

     total cpu time spent up to now is       11.0 secs

     total energy              =    3538.28399753 Ry
     estimated scf accuracy    <       0.00267963 Ry

     iteration # 20     ecut=    20.00 Ry     beta= 0.70
     Davidson diagonalization with overlap

---- Real-time Memory Report at c_bands before calling an iterative solver
            93 MiB given to the printing process from OS
             0 MiB allocation reported by mallinfo(arena+hblkhd)
          4519 MiB available memory on the node where the printing process lives
------------------
     ethr =  1.87E-09,  avg # of iterations =  9.7

     negative rho (up, down):  2.541E-03 0.000E+00

     total cpu time spent up to now is       11.9 secs

     total energy              =    3538.28536949 Ry
     estimated scf accuracy    <       0.00778420 Ry

     iteration # 21     ecut=    20.00 Ry     beta= 0.70
     Davidson diagonalization with overlap

---- Real-time Memory Report at c_bands before calling an iterative solver
            93 MiB given to the printing process from OS
             0 MiB allocation reported by mallinfo(arena+hblkhd)
          4519 MiB available memory on the node where the printing process lives
------------------
     ethr =  1.87E-09,  avg # of iterations =  9.1

     negative rho (up, down):  6.990E-03 0.000E+00

     total cpu time spent up to now is       12.8 secs

     total energy              =    3538.28393424 Ry
     estimated scf accuracy    <       0.01332275 Ry

     iteration # 22     ecut=    20.00 Ry     beta= 0.70
     Davidson diagonalization with overlap

---- Real-time Memory Report at c_bands before calling an iterative solver
            93 MiB given to the printing process from OS
             0 MiB allocation reported by mallinfo(arena+hblkhd)
          4519 MiB available memory on the node where the printing process lives
------------------
     ethr =  1.87E-09,  avg # of iterations =  9.6

     negative rho (up, down):  1.054E-02 0.000E+00

     total cpu time spent up to now is       13.8 secs

     total energy              =    3538.28290069 Ry
     estimated scf accuracy    <       0.01664234 Ry

     iteration # 23     ecut=    20.00 Ry     beta= 0.70
     Davidson diagonalization with overlap

---- Real-time Memory Report at c_bands before calling an iterative solver
            93 MiB given to the printing process from OS
             0 MiB allocation reported by mallinfo(arena+hblkhd)
          4519 MiB available memory on the node where the printing process lives
------------------
     ethr =  1.87E-09,  avg # of iterations =  8.9

     negative rho (up, down):  1.256E-02 0.000E+00

     total cpu time spent up to now is       14.6 secs

     total energy              =    3538.28381648 Ry
     estimated scf accuracy    <       0.01993475 Ry

     iteration # 24     ecut=    20.00 Ry     beta= 0.70
     Davidson diagonalization with overlap

---- Real-time Memory Report at c_bands before calling an iterative solver
            93 MiB given to the printing process from OS
             0 MiB allocation reported by mallinfo(arena+hblkhd)
          4519 MiB available memory on the node where the printing process lives
------------------
     ethr =  1.87E-09,  avg # of iterations =  7.7

     negative rho (up, down):  1.345E-02 0.000E+00

     total cpu time spent up to now is       15.4 secs

     total energy              =    3538.28364420 Ry
     estimated scf accuracy    <       0.02179954 Ry

     iteration # 25     ecut=    20.00 Ry     beta= 0.70
     Davidson diagonalization with overlap

---- Real-time Memory Report at c_bands before calling an iterative solver
            93 MiB given to the printing process from OS
             0 MiB allocation reported by mallinfo(arena+hblkhd)
          4519 MiB available memory on the node where the printing process lives
------------------
     ethr =  1.87E-09,  avg # of iterations =  6.3

     negative rho (up, down):  1.362E-02 0.000E+00

     total cpu time spent up to now is       16.0 secs

     total energy              =    3538.27865924 Ry
     estimated scf accuracy    <       0.02252295 Ry

     iteration # 26     ecut=    20.00 Ry     beta= 0.70
     Davidson diagonalization with overlap

---- Real-time Memory Report at c_bands before calling an iterative solver
            93 MiB given to the printing process from OS
             0 MiB allocation reported by mallinfo(arena+hblkhd)
          4519 MiB available memory on the node where the printing process lives
------------------
     ethr =  1.87E-09,  avg # of iterations =  4.8

     negative rho (up, down):  1.395E-02 0.000E+00

     total cpu time spent up to now is       16.6 secs

     total energy              =    3538.27196742 Ry
     estimated scf accuracy    <       0.02186481 Ry

     iteration # 27     ecut=    20.00 Ry     beta= 0.70
     Davidson diagonalization with overlap

---- Real-time Memory Report at c_bands before calling an iterative solver
            93 MiB given to the printing process from OS
             0 MiB allocation reported by mallinfo(arena+hblkhd)
          4519 MiB available memory on the node where the printing process lives
------------------
     ethr =  1.87E-09,  avg # of iterations =  5.1

     negative rho (up, down):  1.515E-02 0.000E+00

     total cpu time spent up to now is       17.2 secs

     total energy              =    3538.28140426 Ry
     estimated scf accuracy    <       0.02102994 Ry

     iteration # 28     ecut=    20.00 Ry     beta= 0.70
     Davidson diagonalization with overlap

---- Real-time Memory Report at c_bands before calling an iterative solver
            93 MiB given to the printing process from OS
             0 MiB allocation reported by mallinfo(arena+hblkhd)
          4519 MiB available memory on the node where the printing process lives
------------------
     ethr =  1.87E-09,  avg # of iterations =  7.7

     negative rho (up, down):  1.465E-02 0.000E+00

     total cpu time spent up to now is       17.9 secs

     total energy              =    3538.22826424 Ry
     estimated scf accuracy    <       0.02336377 Ry

     iteration # 29     ecut=    20.00 Ry     beta= 0.70
     Davidson diagonalization with overlap

---- Real-time Memory Report at c_bands before calling an iterative solver
            93 MiB given to the printing process from OS
             0 MiB allocation reported by mallinfo(arena+hblkhd)
          4519 MiB available memory on the node where the printing process lives
------------------
     ethr =  1.87E-09,  avg # of iterations =  9.4

     negative rho (up, down):  5.160E-02 0.000E+00

     total cpu time spent up to now is       18.9 secs

     total energy              =    3538.21421903 Ry
     estimated scf accuracy    <       0.01445709 Ry

     iteration # 30     ecut=    20.00 Ry     beta= 0.70
     Davidson diagonalization with overlap

---- Real-time Memory Report at c_bands before calling an iterative solver
            93 MiB given to the printing process from OS
             0 MiB allocation reported by mallinfo(arena+hblkhd)
          4519 MiB available memory on the node where the printing process lives
------------------
     ethr =  1.87E-09,  avg # of iterations =  9.8

     negative rho (up, down):  3.765E-02 0.000E+00

     total cpu time spent up to now is       20.1 secs

     total energy              =    3538.15780529 Ry
     estimated scf accuracy    <       0.00674726 Ry

     iteration # 31     ecut=    20.00 Ry     beta= 0.70
     Davidson diagonalization with overlap

---- Real-time Memory Report at c_bands before calling an iterative solver
            94 MiB given to the printing process from OS
             0 MiB allocation reported by mallinfo(arena+hblkhd)
          4518 MiB available memory on the node where the printing process lives
------------------
     ethr =  1.87E-09,  avg # of iterations =  9.3

     negative rho (up, down):  3.200E-02 0.000E+00

     total cpu time spent up to now is       21.1 secs

     total energy              =    3538.17776697 Ry
     estimated scf accuracy    <       0.00226657 Ry

     iteration # 32     ecut=    20.00 Ry     beta= 0.70
     Davidson diagonalization with overlap

---- Real-time Memory Report at c_bands before calling an iterative solver
            94 MiB given to the printing process from OS
             0 MiB allocation reported by mallinfo(arena+hblkhd)
          4518 MiB available memory on the node where the printing process lives
------------------
     c_bands:  1 eigenvalues not converged
     ethr =  1.87E-09,  avg # of iterations = 10.4

     negative rho (up, down):  5.056E-02 0.000E+00

     total cpu time spent up to now is       22.1 secs

     total energy              =    3538.15540691 Ry
     estimated scf accuracy    <       0.00796917 Ry

     iteration # 33     ecut=    20.00 Ry     beta= 0.70
     Davidson diagonalization with overlap

---- Real-time Memory Report at c_bands before calling an iterative solver
            94 MiB given to the printing process from OS
             0 MiB allocation reported by mallinfo(arena+hblkhd)
          4518 MiB available memory on the node where the printing process lives
------------------
     ethr =  1.87E-09,  avg # of iterations =  8.3

     negative rho (up, down):  5.352E-02 0.000E+00

     total cpu time spent up to now is       22.9 secs

     total energy              =    3538.15275499 Ry
     estimated scf accuracy    <       0.00253717 Ry

     iteration # 34     ecut=    20.00 Ry     beta= 0.70
     Davidson diagonalization with overlap

---- Real-time Memory Report at c_bands before calling an iterative solver
            94 MiB given to the printing process from OS
             0 MiB allocation reported by mallinfo(arena+hblkhd)
          4518 MiB available memory on the node where the printing process lives
------------------
     ethr =  1.87E-09,  avg # of iterations =  7.4

     negative rho (up, down):  5.125E-02 0.000E+00

     total cpu time spent up to now is       23.7 secs

     total energy              =    3538.15031814 Ry
     estimated scf accuracy    <       0.00349514 Ry

     iteration # 35     ecut=    20.00 Ry     beta= 0.70
     Davidson diagonalization with overlap

---- Real-time Memory Report at c_bands before calling an iterative solver
            94 MiB given to the printing process from OS
             0 MiB allocation reported by mallinfo(arena+hblkhd)
          4518 MiB available memory on the node where the printing process lives
------------------
     ethr =  1.87E-09,  avg # of iterations =  5.9

     negative rho (up, down):  5.525E-02 0.000E+00

     total cpu time spent up to now is       24.4 secs

     total energy              =    3538.15165662 Ry
     estimated scf accuracy    <       0.00384863 Ry

     iteration # 36     ecut=    20.00 Ry     beta= 0.70
     Davidson diagonalization with overlap

---- Real-time Memory Report at c_bands before calling an iterative solver
            94 MiB given to the printing process from OS
             0 MiB allocation reported by mallinfo(arena+hblkhd)
          4518 MiB available memory on the node where the printing process lives
------------------
     ethr =  1.87E-09,  avg # of iterations =  6.5

     negative rho (up, down):  5.658E-02 0.000E+00

     total cpu time spent up to now is       25.1 secs

     total energy              =    3538.15261047 Ry
     estimated scf accuracy    <       0.00439012 Ry

     iteration # 37     ecut=    20.00 Ry     beta= 0.70
     Davidson diagonalization with overlap

---- Real-time Memory Report at c_bands before calling an iterative solver
            94 MiB given to the printing process from OS
             0 MiB allocation reported by mallinfo(arena+hblkhd)
          4518 MiB available memory on the node where the printing process lives
------------------
     ethr =  1.87E-09,  avg # of iterations =  6.9

     negative rho (up, down):  5.047E-02 0.000E+00

     total cpu time spent up to now is       25.8 secs

     total energy              =    3538.15135692 Ry
     estimated scf accuracy    <       0.00467864 Ry

     iteration # 38     ecut=    20.00 Ry     beta= 0.70
     Davidson diagonalization with overlap

---- Real-time Memory Report at c_bands before calling an iterative solver
            94 MiB given to the printing process from OS
             0 MiB allocation reported by mallinfo(arena+hblkhd)
          4518 MiB available memory on the node where the printing process lives
------------------
     ethr =  1.87E-09,  avg # of iterations =  8.9

     negative rho (up, down):  5.229E-02 0.000E+00

     total cpu time spent up to now is       26.7 secs

     total energy              =    3538.15105948 Ry
     estimated scf accuracy    <       0.00202333 Ry

     iteration # 39     ecut=    20.00 Ry     beta= 0.70
     Davidson diagonalization with overlap

---- Real-time Memory Report at c_bands before calling an iterative solver
            94 MiB given to the printing process from OS
             0 MiB allocation reported by mallinfo(arena+hblkhd)
          4518 MiB available memory on the node where the printing process lives
------------------
     ethr =  1.87E-09,  avg # of iterations =  8.4

     negative rho (up, down):  5.382E-02 0.000E+00

     total cpu time spent up to now is       27.5 secs

     total energy              =    3538.15145751 Ry
     estimated scf accuracy    <       0.00122080 Ry

     iteration # 40     ecut=    20.00 Ry     beta= 0.70
     Davidson diagonalization with overlap

---- Real-time Memory Report at c_bands before calling an iterative solver
            94 MiB given to the printing process from OS
             0 MiB allocation reported by mallinfo(arena+hblkhd)
          4518 MiB available memory on the node where the printing process lives
------------------
     ethr =  1.87E-09,  avg # of iterations =  7.6

     negative rho (up, down):  5.273E-02 0.000E+00

     total cpu time spent up to now is       28.3 secs

     total energy              =    3538.15126989 Ry
     estimated scf accuracy    <       0.00033698 Ry

     iteration # 41     ecut=    20.00 Ry     beta= 0.70
     Davidson diagonalization with overlap

---- Real-time Memory Report at c_bands before calling an iterative solver
            94 MiB given to the printing process from OS
             0 MiB allocation reported by mallinfo(arena+hblkhd)
          4518 MiB available memory on the node where the printing process lives
------------------
     ethr =  1.87E-09,  avg # of iterations =  6.9

     negative rho (up, down):  5.343E-02 0.000E+00

     total cpu time spent up to now is       29.0 secs

     total energy              =    3538.15125242 Ry
     estimated scf accuracy    <       0.00003698 Ry

     iteration # 42     ecut=    20.00 Ry     beta= 0.70
     Davidson diagonalization with overlap

---- Real-time Memory Report at c_bands before calling an iterative solver
            94 MiB given to the printing process from OS
             0 MiB allocation reported by mallinfo(arena+hblkhd)
          4518 MiB available memory on the node where the printing process lives
------------------
     ethr =  1.87E-09,  avg # of iterations =  5.9

     negative rho (up, down):  5.354E-02 0.000E+00

     total cpu time spent up to now is       29.6 secs

     total energy              =    3538.15123922 Ry
     estimated scf accuracy    <       0.00000206 Ry

     iteration # 43     ecut=    20.00 Ry     beta= 0.70
     Davidson diagonalization with overlap

---- Real-time Memory Report at c_bands before calling an iterative solver
            94 MiB given to the printing process from OS
             0 MiB allocation reported by mallinfo(arena+hblkhd)
          4518 MiB available memory on the node where the printing process lives
------------------
     ethr =  1.87E-09,  avg # of iterations =  4.1

     negative rho (up, down):  5.360E-02 0.000E+00

     total cpu time spent up to now is       30.1 secs

     total energy              =    3538.15123772 Ry
     estimated scf accuracy    <       0.00000086 Ry

     iteration # 44     ecut=    20.00 Ry     beta= 0.70
     Davidson diagonalization with overlap

---- Real-time Memory Report at c_bands before calling an iterative solver
            94 MiB given to the printing process from OS
             0 MiB allocation reported by mallinfo(arena+hblkhd)
          4518 MiB available memory on the node where the printing process lives
------------------
     ethr =  1.87E-09,  avg # of iterations =  2.0

     negative rho (up, down):  5.364E-02 0.000E+00

     total cpu time spent up to now is       30.5 secs

     total energy              =    3538.15123771 Ry
     estimated scf accuracy    <       0.00000018 Ry

     iteration # 45     ecut=    20.00 Ry     beta= 0.70
     Davidson diagonalization with overlap

---- Real-time Memory Report at c_bands before calling an iterative solver
            94 MiB given to the printing process from OS
             0 MiB allocation reported by mallinfo(arena+hblkhd)
          4518 MiB available memory on the node where the printing process lives
------------------
     ethr =  7.45E-10,  avg # of iterations =  2.1

     negative rho (up, down):  5.366E-02 0.000E+00

     total cpu time spent up to now is       30.9 secs

     End of self-consistent calculation

          k = 0.0000 0.0000 0.0000 (   619 PWs)   bands (ev):

   -81.8902 -81.8392 -81.8159 -54.4793 -35.6699 -31.2693 -29.8196 -29.4409
     3.0589   5.9702   6.9252   7.3037   7.3416   7.4446   7.8471   8.9785

     occupation numbers 
     1.0000   1.0000   1.0000   1.0000   1.0000   1.0000   1.0000   1.0000
     1.0000   1.0000   1.0000   1.0213   0.9555   0.4416  -0.0001  -0.0000

          k = 0.0000 0.0000 0.2500 (   594 PWs)   bands (ev):

   -78.2954 -78.2740 -76.5821 -54.4443 -35.5827 -31.0151 -29.6135 -29.2800
     3.3474   5.9459   6.2486   7.5254   7.7504   7.8841   8.7366   8.8751

     occupation numbers 
     1.0000   1.0000   1.0000   1.0000   1.0000   1.0000   1.0000   1.0000
     1.0000   1.0000   1.0000   0.0535  -0.0025  -0.0000  -0.0000  -0.0000

          k = 0.0000 0.0000-0.5000 (   610 PWs)   bands (ev):

   -81.6689 -81.6503 -77.7386 -54.4721 -35.6347 -31.2276 -29.7283 -29.4287
     3.8976   4.7069   6.2813   7.3004   7.8297   7.9754   8.2213   8.2801

     occupation numbers 
     1.0000   1.0000   1.0000   1.0000   1.0000   1.0000   1.0000   1.0000
     1.0000   1.0000   1.0000   1.0241  -0.0002  -0.0000  -0.0000  -0.0000

          k = 0.0000 0.2500 0.2500 (   605 PWs)   bands (ev):

   -80.5960 -79.7030 -78.5598 -54.4604 -35.6191 -31.1288 -29.7349 -29.3806
     3.1948   5.1067   6.1138   6.5982   7.9071   8.7678   9.3225   9.4842

     occupation numbers 
     1.0000   1.0000   1.0000   1.0000   1.0000   1.0000   1.0000   1.0000
     1.0000   1.0000   1.0000   1.0000  -0.0000  -0.0000  -0.0000  -0.0000

          k = 0.0000 0.2500-0.5000 (   608 PWs)   bands (ev):

   -80.2375 -80.1550 -79.8889 -54.4686 -35.6312 -31.1865 -29.8049 -29.3711
     3.9078   4.0879   6.2624   6.4930   7.6252   8.5593   9.5383   9.7674

     occupation numbers 
     1.0000   1.0000   1.0000   1.0000   1.0000   1.0000   1.0000   1.0000
     1.0000   1.0000   1.0000   1.0000  -0.0319  -0.0000  -0.0000  -0.0000

          k = 0.0000-0.5000-0.5000 (   624 PWs)   bands (ev):

   -82.9319 -82.9130 -82.2582 -54.4820 -35.6803 -31.3694 -29.9139 -29.4478
     3.0498   4.2946   5.5269   7.0623   7.5207   8.8231   9.0954   9.6223

     occupation numbers 
     1.0000   1.0000   1.0000   1.0000   1.0000   1.0000   1.0000   1.0000
     1.0000   1.0000   1.0000   1.0004   0.0676  -0.0000  -0.0000  -0.0000

          k = 0.2500 0.2500 0.2500 (   597 PWs)   bands (ev):

   -78.8880 -78.8207 -77.0780 -54.4529 -35.5931 -31.0811 -29.7076 -29.3202
     3.4028   5.1014   5.5470   7.1083   8.0026   8.2714   9.6871   9.8141

     occupation numbers 
     1.0000   1.0000   1.0000   1.0000   1.0000   1.0000   1.0000   1.0000
     1.0000   1.0000   1.0000   1.0018  -0.0000  -0.0000  -0.0000  -0.0000

          k = 0.2500 0.2500-0.5000 (   598 PWs)   bands (ev):

   -79.1637 -79.1613 -76.8441 -54.4552 -35.5983 -31.0711 -29.7683 -29.3028
     4.1180   4.4942   5.4551   7.1138   7.3488   8.8389   9.6318   9.7102

     occupation numbers 
     1.0000   1.0000   1.0000   1.0000   1.0000   1.0000   1.0000   1.0000
     1.0000   1.0000   1.0000   1.0021   0.9349  -0.0000  -0.0000  -0.0000

          k = 0.2500-0.5000-0.5000 (   604 PWs)   bands (ev):

   -79.4767 -79.4765 -79.3473 -54.4565 -35.6104 -31.1628 -29.7735 -29.3735
     3.9159   5.1144   5.1825   6.8783   7.8109   8.3602   8.9157   9.3799

     occupation numbers 
     1.0000   1.0000   1.0000   1.0000   1.0000   1.0000   1.0000   1.0000
     1.0000   1.0000   1.0000   1.0000  -0.0003  -0.0000  -0.0000  -0.0000

          k =-0.5000-0.5000-0.5000 (   624 PWs)   bands (ev):

   -82.7185 -82.5896 -82.5676 -54.4903 -35.6721 -31.3727 -29.9140 -29.5140
     4.7575   4.7958   6.1068   6.4009   6.5280   7.4328   7.4486   9.6289

     occupation numbers 
     1.0000   1.0000   1.0000   1.0000   1.0000   1.0000   1.0000   1.0000
     1.0000   1.0000   1.0000   1.0000   1.0000   0.5147   0.4166  -0.0000

          k = 0.2500 0.0000 0.0000 (   594 PWs)   bands (ev):

   -78.3923 -78.3060 -76.4627 -54.4440 -35.5876 -31.0140 -29.6696 -29.2194
     2.8875   5.7204   6.2274   7.3852   7.5713   8.9620   9.1821   9.3635

     occupation numbers 
     1.0000   1.0000   1.0000   1.0000   1.0000   1.0000   1.0000   1.0000
     1.0000   1.0000   1.0000   0.7888  -0.0252  -0.0000  -0.0000  -0.0000

          k = 0.0000 0.2500 0.0000 (   594 PWs)   bands (ev):

   -78.3907 -78.2830 -76.4856 -54.4436 -35.5882 -30.9626 -29.6692 -29.2777
     2.9179   5.5983   6.2836   7.4264   7.5262   8.8779   9.2335   9.4388

     occupation numbers 
     1.0000   1.0000   1.0000   1.0000   1.0000   1.0000   1.0000   1.0000
     1.0000   1.0000   1.0000   0.5543   0.0514  -0.0000  -0.0000  -0.0000

          k =-0.5000 0.0000 0.0000 (   610 PWs)   bands (ev):

   -81.7363 -81.6700 -77.7260 -54.4688 -35.6426 -31.2342 -29.8238 -29.3461
     2.5077   5.3524   6.0083   7.1609   7.3000   8.8857   9.3751  10.0920

     occupation numbers 
     1.0000   1.0000   1.0000   1.0000   1.0000   1.0000   1.0000   1.0000
     1.0000   1.0000   1.0000   1.0076   1.0245  -0.0000  -0.0000  -0.0000

          k = 0.0000-0.5000 0.0000 (   610 PWs)   bands (ev):

   -81.7336 -81.6469 -77.7497 -54.4682 -35.6440 -31.1573 -29.8223 -29.4352
     2.5490   5.4086   5.8639   7.1015   7.2841   8.9268   9.3352  10.1069

     occupation numbers 
     1.0000   1.0000   1.0000   1.0000   1.0000   1.0000   1.0000   1.0000
     1.0000   1.0000   1.0000   1.0014   1.0331  -0.0000  -0.0000  -0.0000

          k = 0.2500 0.0000-0.2500 (   605 PWs)   bands (ev):

   -80.6181 -79.6940 -78.5467 -54.4606 -35.6187 -31.1599 -29.7383 -29.3411
     3.1702   5.1705   6.0568   6.6474   7.9324   8.7075   9.3245   9.4935

     occupation numbers 
     1.0000   1.0000   1.0000   1.0000   1.0000   1.0000   1.0000   1.0000
     1.0000   1.0000   1.0000   1.0000  -0.0000  -0.0000  -0.0000  -0.0000

          k = 0.2500-0.2500 0.0000 (   605 PWs)   bands (ev):

   -80.6951 -79.7214 -78.5047 -54.4580 -35.6191 -31.1319 -29.7682 -29.3495
     2.9795   4.9303   6.3417   7.6067   7.6114   8.6718   8.8321   9.4309

     occupation numbers 
     1.0000   1.0000   1.0000   1.0000   1.0000   1.0000   1.0000   1.0000
     1.0000   1.0000   1.0000  -0.0353  -0.0348  -0.0000  -0.0000  -0.0000

          k = 0.2500 0.0000 0.5000 (   608 PWs)   bands (ev):

   -80.2576 -80.1321 -79.8885 -54.4682 -35.6301 -31.1701 -29.8045 -29.3902
     3.8942   4.1132   6.2060   6.5783   7.6185   8.4986   9.5357   9.7008

     occupation numbers 
     1.0000   1.0000   1.0000   1.0000   1.0000   1.0000   1.0000   1.0000
     1.0000   1.0000   1.0000   1.0000  -0.0335  -0.0000  -0.0000  -0.0000

          k =-0.5000-0.2500 0.0000 (   608 PWs)   bands (ev):

   -80.3275 -80.1549 -79.8261 -54.4678 -35.6301 -31.1970 -29.7608 -29.4221
     3.0902   4.5973   6.9142   7.3369   7.5639   8.4729   8.5746   9.8847

     occupation numbers 
     1.0000   1.0000   1.0000   1.0000   1.0000   1.0000   1.0000   1.0000
     1.0000   1.0000   1.0000   0.9673  -0.0186  -0.0000  -0.0000  -0.0000

          k = 0.0000-0.5000 0.2500 (   608 PWs)   bands (ev):

   -80.2492 -80.2441 -79.9399 -54.4639 -35.6324 -31.2086 -29.7844 -29.3749
     2.8134   5.0827   5.5157   7.3012   7.4109   8.9215   9.2969  10.1213

     occupation numbers 
     1.0000   1.0000   1.0000   1.0000   1.0000   1.0000   1.0000   1.0000
     1.0000   1.0000   1.0000   1.0234   0.6484  -0.0000  -0.0000  -0.0000

          k = 0.2500-0.5000 0.0000 (   608 PWs)   bands (ev):

   -80.3269 -80.1321 -79.8506 -54.4681 -35.6308 -31.2172 -29.7604 -29.4013
     3.1343   4.5533   6.8733   7.3251   7.5022   8.5375   8.5878   9.9104

     occupation numbers 
     1.0000   1.0000   1.0000   1.0000   1.0000   1.0000   1.0000   1.0000
     1.0000   1.0000   1.0000   0.9923   0.1340  -0.0000  -0.0000  -0.0000

          k =-0.5000 0.0000 0.2500 (   608 PWs)   bands (ev):

   -80.2662 -80.2500 -79.9156 -54.4634 -35.6316 -31.1693 -29.7843 -29.4169
     2.7875   5.1756   5.4597   7.3248   7.4511   8.8639   9.3154  10.1447

     occupation numbers 
     1.0000   1.0000   1.0000   1.0000   1.0000   1.0000   1.0000   1.0000
     1.0000   1.0000   1.0000   0.9929   0.4019  -0.0000  -0.0000  -0.0000

          k =-0.5000 0.0000 0.5000 (   624 PWs)   bands (ev):

   -82.9107 -82.9079 -82.2821 -54.4815 -35.6794 -31.3008 -29.9125 -29.5254
     3.0455   4.3660   5.4680   6.9581   7.6221   8.7605   9.1172   9.6367

     occupation numbers 
     1.0000   1.0000   1.0000   1.0000   1.0000   1.0000   1.0000   1.0000
     1.0000   1.0000   1.0000   1.0000  -0.0327  -0.0000  -0.0000  -0.0000

          k =-0.5000 0.5000 0.0000 (   624 PWs)   bands (ev):

   -82.8933 -82.8708 -82.3772 -54.4873 -35.6761 -31.3799 -29.8321 -29.5327
     4.0050   4.0916   6.4224   7.0833   7.6638   8.1915   8.2678   9.6686

     occupation numbers 
     1.0000   1.0000   1.0000   1.0000   1.0000   1.0000   1.0000   1.0000
     1.0000   1.0000   1.0000   1.0008  -0.0194  -0.0000  -0.0000  -0.0000

          k =-0.5000-0.2500 0.2500 (   598 PWs)   bands (ev):

   -79.2122 -79.1205 -76.8636 -54.4536 -35.5958 -31.0773 -29.6930 -29.3808
     3.4664   4.8757   5.9944   7.4322   7.7837   8.3165   8.9544   9.2096

     occupation numbers 
     1.0000   1.0000   1.0000   1.0000   1.0000   1.0000   1.0000   1.0000
     1.0000   1.0000   1.0000   0.5186  -0.0009  -0.0000  -0.0000  -0.0000

          k =-0.2500-0.5000 0.2500 (   598 PWs)   bands (ev):

   -79.2007 -79.1450 -76.8525 -54.4542 -35.5964 -31.1365 -29.6995 -29.3076
     3.5007   4.8350   5.9587   7.4809   7.7336   8.3367   8.9810   9.1763

     occupation numbers 
     1.0000   1.0000   1.0000   1.0000   1.0000   1.0000   1.0000   1.0000
     1.0000   1.0000   1.0000   0.2324  -0.0041  -0.0000  -0.0000  -0.0000

          k =-0.5000 0.2500 0.5000 (   604 PWs)   bands (ev):

   -79.4760 -79.4531 -79.3710 -54.4566 -35.6102 -31.1518 -29.7735 -29.3873
     3.9066   5.1695   5.1866   6.7542   7.8565   8.4105   8.9043   9.3442

     occupation numbers 
     1.0000   1.0000   1.0000   1.0000   1.0000   1.0000   1.0000   1.0000
     1.0000   1.0000   1.0000   1.0000  -0.0001  -0.0000  -0.0000  -0.0000

          k =-0.5000 0.5000 0.2500 (   604 PWs)   bands (ev):

   -79.4314 -79.3799 -79.3573 -54.4639 -35.6090 -31.1711 -29.7538 -29.3863
     4.4989   4.5786   7.0017   7.0153   7.4356   7.5281   7.7882   8.2819

     occupation numbers 
     1.0000   1.0000   1.0000   1.0000   1.0000   1.0000   1.0000   1.0000
     1.0000   1.0000   1.0000   1.0001   0.4970   0.0461  -0.0008  -0.0000

     the Fermi energy is     7.4352 ev

!    total energy              =    3538.15123766 Ry
     estimated scf accuracy    <          2.2E-09 Ry
     smearing contrib. (-TS)   =      -0.00040923 Ry
     internal energy E=F+TS    =    3538.15164689 Ry

     The total energy is F=E-TS. E is the sum of the following terms:
     one-electron contribution =    -161.37352014 Ry
     hartree contribution      =      70.90150043 Ry
     xc contribution           =     -34.13165615 Ry
     ewald contribution        =    3662.75532275 Ry

     convergence has been achieved in  45 iterations

     Writing all to output data dir ./tmp/tio2_ecut20.save/

     init_run     :      0.75s CPU      0.75s WALL (       1 calls)
     electrons    :     29.36s CPU     30.02s WALL (       1 calls)

     Called by init_run:
     wfcinit      :      0.25s CPU      0.25s WALL (       1 calls)
     wfcinit:atom :      0.00s CPU      0.00s WALL (      27 calls)
     wfcinit:wfcr :      0.24s CPU      0.24s WALL (      27 calls)
     potinit      :      0.19s CPU      0.19s WALL (       1 calls)
     hinit0       :      0.29s CPU      0.29s WALL (       1 calls)

     Called by electrons:
     c_bands      :     25.46s CPU     25.68s WALL (      45 calls)
     sum_band     :      2.75s CPU      2.99s WALL (      45 calls)
     v_of_rho     :      0.34s CPU      0.34s WALL (      46 calls)
     v_h          :      0.01s CPU      0.01s WALL (      46 calls)
     v_xc         :      0.33s CPU      0.33s WALL (      46 calls)
     newd         :      0.79s CPU      0.97s WALL (      46 calls)
     mix_rho      :      0.04s CPU      0.04s WALL (      45 calls)

     Called by c_bands:
     init_us_2    :      0.27s CPU      0.27s WALL (    2457 calls)
     init_us_2:cp :      0.27s CPU      0.27s WALL (    2457 calls)
     cegterg      :     24.85s CPU     25.07s WALL (    1215 calls)

     Called by sum_band:
     sum_band:wei :      0.02s CPU      0.02s WALL (      45 calls)
     sum_band:loo :      1.82s CPU      1.83s WALL (      45 calls)
     sum_band:buf :      0.01s CPU      0.01s WALL (    1215 calls)
     sum_band:ini :      0.13s CPU      0.13s WALL (    1215 calls)
     sum_band:cal :      0.48s CPU      0.48s WALL (    1215 calls)
     sum_band:bec :      0.01s CPU      0.01s WALL (    1215 calls)
     addusdens    :      0.88s CPU      1.12s WALL (      45 calls)
                                        0.00s GPU  (      45 calls)
     addusd:skk   :      0.01s CPU      0.01s WALL (      90 calls)
                                        0.00s GPU  (      90 calls)

     Called by *egterg:
     cdiaghg      :      1.83s CPU      1.84s WALL (    8719 calls)
     cegterg:over :      2.28s CPU      2.30s WALL (    7504 calls)
     cegterg:upda :      1.50s CPU      1.52s WALL (    7504 calls)
     cegterg:last :      3.82s CPU      3.84s WALL (    4142 calls)
     h_psi        :     12.91s CPU     13.04s WALL (    8746 calls)
     s_psi        :      1.98s CPU      2.00s WALL (    8746 calls)
     g_psi        :      0.10s CPU      0.10s WALL (    7504 calls)

     Called by h_psi:
     h_psi:calbec :      1.84s CPU      1.85s WALL (    8746 calls)
     vloc_psi     :      9.02s CPU      9.11s WALL (    8746 calls)
     add_vuspsi   :      1.99s CPU      2.00s WALL (    8746 calls)

     General routines
     calbec       :      2.31s CPU      2.33s WALL (    9961 calls)
     fft          :      0.23s CPU      0.23s WALL (     596 calls)
     ffts         :      0.17s CPU      0.17s WALL (      91 calls)
     fftw         :      8.53s CPU      8.62s WALL (  166066 calls)
     interpolate  :      0.18s CPU      0.18s WALL (      46 calls)

     Parallel routines

     PWSCF        :     30.23s CPU     30.89s WALL


   This run was terminated on:  21:34: 3  17Jul2025            

=------------------------------------------------------------------------------=
   JOB DONE.
=------------------------------------------------------------------------------=
