
     Program PWSCF v.7.2 starts on 17Jul2025 at 21:38:42 

     This program is part of the open-source Quantum ESPRESSO suite
     for quantum simulation of materials; please cite
         "P. Giannozzi et al., J. Phys.:Condens. Matter 21 395502 (2009);
         "P. Giannozzi et al., J. Phys.:Condens. Matter 29 465901 (2017);
         "P. Giannozzi et al., J. Chem. Phys. 152 154105 (2020);
          URL http://www.quantum-espresso.org", 
     in publications or presentations arising from this work. More details at
     http://www.quantum-espresso.org/quote

     Parallel version (MPI), running on     1 processors

     MPI processes distributed on     1 nodes
     4538 MiB available memory on the printing compute node when the environment starts

     Waiting for input...
     Reading input from standard input

     Current dimensions of program PWSCF are:
     Max number of different atomic species (ntypx) = 10
     Max number of k-points (npk) =  40000
     Max angular momentum in pseudopotentials (lmaxx) =  4
     file Ti.pbe-spn-rrkjus_psl.1.0.0.UPF: wavefunction(s)  3S 3D renormalized

     Subspace diagonalization in iterative solution of the eigenvalue problem:
     a serial algorithm will be used


     G-vector sticks info
     --------------------
     sticks:   dense  smooth     PW     G-vecs:    dense   smooth      PW
     Sum         177      89     37                 1743      619     179

     Using Slab Decomposition



     bravais-lattice index     =            1
     lattice parameter (alat)  =       7.3700  a.u.
     unit-cell volume          =     400.3156 (a.u.)^3
     number of atoms/cell      =            3
     number of atomic types    =            2
     number of electrons       =        24.00
     number of Kohn-Sham states=           16
     kinetic-energy cutoff     =       5.0000  Ry
     charge density cutoff     =      40.0000  Ry
     scf convergence threshold =      1.0E-08
     mixing beta               =       0.7000
     number of iterations used =            8  plain     mixing
     Exchange-correlation= PBE
                           (   1   4   3   4   0   0   0)

     celldm(1)=   7.370000  celldm(2)=   0.000000  celldm(3)=   0.000000
     celldm(4)=   0.000000  celldm(5)=   0.000000  celldm(6)=   0.000000

     crystal axes: (cart. coord. in units of alat)
               a(1) = (   1.000000   0.000000   0.000000 )  
               a(2) = (   0.000000   1.000000   0.000000 )  
               a(3) = (   0.000000   0.000000   1.000000 )  

     reciprocal axes: (cart. coord. in units 2 pi/alat)
               b(1) = (  1.000000  0.000000  0.000000 )  
               b(2) = (  0.000000  1.000000  0.000000 )  
               b(3) = (  0.000000  0.000000  1.000000 )  


     PseudoPot. # 1 for Ti read from file:
     ../pseudo/Ti.pbe-spn-rrkjus_psl.1.0.0.UPF
     MD5 check sum: e281089c08e14b8efcf92e44a67ada65
     Pseudo is Ultrasoft + core correction, Zval = 12.0
     Generated using &quot;atomic&quot; code by A. Dal Corso  v.6.2.2
     Using radial grid of 1177 points,  6 beta functions with: 
                l(1) =   0
                l(2) =   0
                l(3) =   1
                l(4) =   1
                l(5) =   2
                l(6) =   2
     Q(r) pseudized with 0 coefficients 


     PseudoPot. # 2 for O  read from file:
     ../pseudo/O.pbe-n-rrkjus_psl.1.0.0.UPF
     MD5 check sum: 91400c9766925bcf19f520983a725ff0
     Pseudo is Ultrasoft + core correction, Zval =  6.0
     Generated using &quot;atomic&quot; code by A. Dal Corso  v.6.3MaX
     Using radial grid of 1095 points,  4 beta functions with: 
                l(1) =   0
                l(2) =   0
                l(3) =   1
                l(4) =   1
     Q(r) pseudized with 0 coefficients 


     atomic species   valence    mass     pseudopotential
        Ti            12.00    47.86700     Ti( 1.00)
        O              6.00    15.99900     O ( 1.00)

      4 Sym. Ops. (no inversion) found


                                    s                        frac. trans.

      isym =  1     identity                                     

 cryst.   s( 1) = (     1          0          0      )
                  (     0          1          0      )
                  (     0          0          1      )

 cart.    s( 1) = (  1.0000000  0.0000000  0.0000000 )
                  (  0.0000000  1.0000000  0.0000000 )
                  (  0.0000000  0.0000000  1.0000000 )


      isym =  2     180 deg rotation - cart. axis [0,1,0]        

 cryst.   s( 2) = (    -1          0          0      )
                  (     0          1          0      )
                  (     0          0         -1      )

 cart.    s( 2) = ( -1.0000000  0.0000000  0.0000000 )
                  (  0.0000000  1.0000000  0.0000000 )
                  (  0.0000000  0.0000000 -1.0000000 )


      isym =  3     inv. 180 deg rotation - cart. axis [0,0,1]   

 cryst.   s( 3) = (     1          0          0      )
                  (     0          1          0      )
                  (     0          0         -1      )

 cart.    s( 3) = (  1.0000000  0.0000000  0.0000000 )
                  (  0.0000000  1.0000000  0.0000000 )
                  (  0.0000000  0.0000000 -1.0000000 )


      isym =  4     inv. 180 deg rotation - cart. axis [1,0,0]   

 cryst.   s( 4) = (    -1          0          0      )
                  (     0          1          0      )
                  (     0          0          1      )

 cart.    s( 4) = ( -1.0000000  0.0000000  0.0000000 )
                  (  0.0000000  1.0000000  0.0000000 )
                  (  0.0000000  0.0000000  1.0000000 )


     point group C_2v (mm2) 
     there are  4 classes
     the character table:

       E     C2    s_v   s_v' 
A_1    1.00  1.00  1.00  1.00
A_2    1.00  1.00 -1.00 -1.00
B_1    1.00 -1.00  1.00 -1.00
B_2    1.00 -1.00 -1.00  1.00

     the symmetry operations in each class and the name of the first element:

     E        1
          identity                                               
     C2       2
          180 deg rotation - cart. axis [0,1,0]                  
     s_v      3
          inv. 180 deg rotation - cart. axis [0,0,1]             
     s_v'     4
          inv. 180 deg rotation - cart. axis [1,0,0]             

   Cartesian axes

     site n.     atom                  positions (alat units)
         1           Ti  tau(   1) = (   0.0000000   0.0000000   0.0000000  )
         2           O   tau(   2) = (   0.4987133   0.4987133   0.0000000  )
         3           O   tau(   3) = (  -0.4987133   0.4987133   0.0000000  )

   Crystallographic axes

     site n.     atom                  positions (cryst. coord.)
         1           Ti  tau(   1) = (  0.0000000  0.0000000  0.0000000  )
         2           O   tau(   2) = (  0.4987133  0.4987133  0.0000000  )
         3           O   tau(   3) = ( -0.4987133  0.4987133  0.0000000  )

     number of k points=    27  Methfessel-Paxton smearing, width (Ry)=  0.0100
                       cart. coord. in units 2pi/alat
        k(    1) = (   0.0000000   0.0000000   0.0000000), wk =   0.0312500
        k(    2) = (   0.0000000   0.0000000   0.2500000), wk =   0.0625000
        k(    3) = (   0.0000000   0.0000000  -0.5000000), wk =   0.0312500
        k(    4) = (   0.0000000   0.2500000   0.2500000), wk =   0.1250000
        k(    5) = (   0.0000000   0.2500000  -0.5000000), wk =   0.0625000
        k(    6) = (   0.0000000  -0.5000000  -0.5000000), wk =   0.0312500
        k(    7) = (   0.2500000   0.2500000   0.2500000), wk =   0.2500000
        k(    8) = (   0.2500000   0.2500000  -0.5000000), wk =   0.1250000
        k(    9) = (   0.2500000  -0.5000000  -0.5000000), wk =   0.0625000
        k(   10) = (  -0.5000000  -0.5000000  -0.5000000), wk =   0.0312500
        k(   11) = (   0.2500000   0.0000000   0.0000000), wk =   0.0625000
        k(   12) = (   0.0000000   0.2500000   0.0000000), wk =   0.0625000
        k(   13) = (  -0.5000000   0.0000000   0.0000000), wk =   0.0312500
        k(   14) = (   0.0000000  -0.5000000   0.0000000), wk =   0.0312500
        k(   15) = (   0.2500000   0.0000000  -0.2500000), wk =   0.1250000
        k(   16) = (   0.2500000  -0.2500000   0.0000000), wk =   0.1250000
        k(   17) = (   0.2500000   0.0000000   0.5000000), wk =   0.0625000
        k(   18) = (  -0.5000000  -0.2500000   0.0000000), wk =   0.0625000
        k(   19) = (   0.0000000  -0.5000000   0.2500000), wk =   0.0625000
        k(   20) = (   0.2500000  -0.5000000   0.0000000), wk =   0.0625000
        k(   21) = (  -0.5000000   0.0000000   0.2500000), wk =   0.0625000
        k(   22) = (  -0.5000000   0.0000000   0.5000000), wk =   0.0312500
        k(   23) = (  -0.5000000   0.5000000   0.0000000), wk =   0.0312500
        k(   24) = (  -0.5000000  -0.2500000   0.2500000), wk =   0.1250000
        k(   25) = (  -0.2500000  -0.5000000   0.2500000), wk =   0.1250000
        k(   26) = (  -0.5000000   0.2500000   0.5000000), wk =   0.0625000
        k(   27) = (  -0.5000000   0.5000000   0.2500000), wk =   0.0625000

                       cryst. coord.
        k(    1) = (   0.0000000   0.0000000   0.0000000), wk =   0.0312500
        k(    2) = (   0.0000000   0.0000000   0.2500000), wk =   0.0625000
        k(    3) = (   0.0000000   0.0000000  -0.5000000), wk =   0.0312500
        k(    4) = (   0.0000000   0.2500000   0.2500000), wk =   0.1250000
        k(    5) = (   0.0000000   0.2500000  -0.5000000), wk =   0.0625000
        k(    6) = (   0.0000000  -0.5000000  -0.5000000), wk =   0.0312500
        k(    7) = (   0.2500000   0.2500000   0.2500000), wk =   0.2500000
        k(    8) = (   0.2500000   0.2500000  -0.5000000), wk =   0.1250000
        k(    9) = (   0.2500000  -0.5000000  -0.5000000), wk =   0.0625000
        k(   10) = (  -0.5000000  -0.5000000  -0.5000000), wk =   0.0312500
        k(   11) = (   0.2500000   0.0000000   0.0000000), wk =   0.0625000
        k(   12) = (   0.0000000   0.2500000   0.0000000), wk =   0.0625000
        k(   13) = (  -0.5000000   0.0000000   0.0000000), wk =   0.0312500
        k(   14) = (   0.0000000  -0.5000000   0.0000000), wk =   0.0312500
        k(   15) = (   0.2500000   0.0000000  -0.2500000), wk =   0.1250000
        k(   16) = (   0.2500000  -0.2500000   0.0000000), wk =   0.1250000
        k(   17) = (   0.2500000   0.0000000   0.5000000), wk =   0.0625000
        k(   18) = (  -0.5000000  -0.2500000   0.0000000), wk =   0.0625000
        k(   19) = (   0.0000000  -0.5000000   0.2500000), wk =   0.0625000
        k(   20) = (   0.2500000  -0.5000000   0.0000000), wk =   0.0625000
        k(   21) = (  -0.5000000   0.0000000   0.2500000), wk =   0.0625000
        k(   22) = (  -0.5000000   0.0000000   0.5000000), wk =   0.0312500
        k(   23) = (  -0.5000000   0.5000000   0.0000000), wk =   0.0312500
        k(   24) = (  -0.5000000  -0.2500000   0.2500000), wk =   0.1250000
        k(   25) = (  -0.2500000  -0.5000000   0.2500000), wk =   0.1250000
        k(   26) = (  -0.5000000   0.2500000   0.5000000), wk =   0.0625000
        k(   27) = (  -0.5000000   0.5000000   0.2500000), wk =   0.0625000

     Dense  grid:     1743 G-vectors     FFT dimensions: (  15,  15,  15)

     Smooth grid:      619 G-vectors     FFT dimensions: (  12,  12,  12)

     Dynamical RAM for                 wfc:       0.02 MB

     Dynamical RAM for     wfc (w. buffer):       0.52 MB

     Dynamical RAM for           str. fact:       0.05 MB

     Dynamical RAM for           local pot:       0.00 MB

     Dynamical RAM for          nlocal pot:       0.04 MB

     Dynamical RAM for                qrad:       1.02 MB

     Dynamical RAM for          rho,v,vnew:       0.16 MB

     Dynamical RAM for               rhoin:       0.05 MB

     Dynamical RAM for            rho*nmix:       0.43 MB

     Dynamical RAM for           G-vectors:       0.10 MB

     Dynamical RAM for          h,s,v(r/c):       0.05 MB

     Dynamical RAM for          <psi|beta>:       0.01 MB

     Dynamical RAM for                 psi:       0.04 MB

     Dynamical RAM for                hpsi:       0.04 MB

     Dynamical RAM for                spsi:       0.04 MB

     Dynamical RAM for      wfcinit/wfcrot:       0.05 MB

     Dynamical RAM for           addusdens:       5.00 MB

     Estimated static dynamical RAM per process >       2.15 MB

     Estimated max dynamical RAM per process >       7.58 MB

     Check: negative core charge=   -0.005990

     Initial potential from superposition of free atoms

     starting charge      23.9985, renormalised to      24.0000

     negative rho (up, down):  1.565E-01 0.000E+00
     Starting wfcs are   18 randomized atomic wfcs

     total cpu time spent up to now is        0.3 secs

     Self-consistent Calculation

     iteration #  1     ecut=     5.00 Ry     beta= 0.70
     Davidson diagonalization with overlap

---- Real-time Memory Report at c_bands before calling an iterative solver
            36 MiB given to the printing process from OS
             0 MiB allocation reported by mallinfo(arena+hblkhd)
          4531 MiB available memory on the node where the printing process lives
------------------
     ethr =  1.00E-02,  avg # of iterations =  5.9

     total cpu time spent up to now is        0.4 secs

     total energy              =    3614.95405931 Ry
     estimated scf accuracy    <      42.32660602 Ry

     iteration #  2     ecut=     5.00 Ry     beta= 0.70
     Davidson diagonalization with overlap

---- Real-time Memory Report at c_bands before calling an iterative solver
            39 MiB given to the printing process from OS
             0 MiB allocation reported by mallinfo(arena+hblkhd)
          4526 MiB available memory on the node where the printing process lives
------------------
     ethr =  1.00E-02,  avg # of iterations =  3.2

     negative rho (up, down):  4.440E-04 0.000E+00

     total cpu time spent up to now is        0.5 secs

     total energy              =    3612.77237154 Ry
     estimated scf accuracy    <       3.39398959 Ry

     iteration #  3     ecut=     5.00 Ry     beta= 0.70
     Davidson diagonalization with overlap

---- Real-time Memory Report at c_bands before calling an iterative solver
            39 MiB given to the printing process from OS
             0 MiB allocation reported by mallinfo(arena+hblkhd)
          4526 MiB available memory on the node where the printing process lives
------------------
     ethr =  1.00E-02,  avg # of iterations =  2.0

     negative rho (up, down):  2.942E-02 0.000E+00

     total cpu time spent up to now is        0.5 secs

     total energy              =    3612.44698004 Ry
     estimated scf accuracy    <       0.67763306 Ry

     iteration #  4     ecut=     5.00 Ry     beta= 0.70
     Davidson diagonalization with overlap

---- Real-time Memory Report at c_bands before calling an iterative solver
            40 MiB given to the printing process from OS
             0 MiB allocation reported by mallinfo(arena+hblkhd)
          4526 MiB available memory on the node where the printing process lives
------------------
     ethr =  2.82E-03,  avg # of iterations =  2.1

     negative rho (up, down):  4.354E-02 0.000E+00

     total cpu time spent up to now is        0.6 secs

     total energy              =    3612.33049978 Ry
     estimated scf accuracy    <       0.01348559 Ry

     iteration #  5     ecut=     5.00 Ry     beta= 0.70
     Davidson diagonalization with overlap

---- Real-time Memory Report at c_bands before calling an iterative solver
            40 MiB given to the printing process from OS
             0 MiB allocation reported by mallinfo(arena+hblkhd)
          4526 MiB available memory on the node where the printing process lives
------------------
     ethr =  5.62E-05,  avg # of iterations =  5.0

     negative rho (up, down):  4.617E-02 0.000E+00

     total cpu time spent up to now is        0.7 secs

     total energy              =    3612.32773940 Ry
     estimated scf accuracy    <       0.00575883 Ry

     iteration #  6     ecut=     5.00 Ry     beta= 0.70
     Davidson diagonalization with overlap

---- Real-time Memory Report at c_bands before calling an iterative solver
            40 MiB given to the printing process from OS
             0 MiB allocation reported by mallinfo(arena+hblkhd)
          4526 MiB available memory on the node where the printing process lives
------------------
     ethr =  2.40E-05,  avg # of iterations =  2.9

     negative rho (up, down):  4.682E-02 0.000E+00

     total cpu time spent up to now is        0.7 secs

     total energy              =    3612.32654326 Ry
     estimated scf accuracy    <       0.00011029 Ry

     iteration #  7     ecut=     5.00 Ry     beta= 0.70
     Davidson diagonalization with overlap

---- Real-time Memory Report at c_bands before calling an iterative solver
            40 MiB given to the printing process from OS
             0 MiB allocation reported by mallinfo(arena+hblkhd)
          4526 MiB available memory on the node where the printing process lives
------------------
     ethr =  4.60E-07,  avg # of iterations =  4.8

     negative rho (up, down):  4.697E-02 0.000E+00

     total cpu time spent up to now is        0.8 secs

     total energy              =    3612.32652486 Ry
     estimated scf accuracy    <       0.00000910 Ry

     iteration #  8     ecut=     5.00 Ry     beta= 0.70
     Davidson diagonalization with overlap

---- Real-time Memory Report at c_bands before calling an iterative solver
            40 MiB given to the printing process from OS
             0 MiB allocation reported by mallinfo(arena+hblkhd)
          4526 MiB available memory on the node where the printing process lives
------------------
     ethr =  3.79E-08,  avg # of iterations =  2.1

     negative rho (up, down):  4.701E-02 0.000E+00

     total cpu time spent up to now is        0.9 secs

     total energy              =    3612.32652443 Ry
     estimated scf accuracy    <       0.00000041 Ry

     iteration #  9     ecut=     5.00 Ry     beta= 0.70
     Davidson diagonalization with overlap

---- Real-time Memory Report at c_bands before calling an iterative solver
            40 MiB given to the printing process from OS
             0 MiB allocation reported by mallinfo(arena+hblkhd)
          4526 MiB available memory on the node where the printing process lives
------------------
     ethr =  1.73E-09,  avg # of iterations =  3.2

     negative rho (up, down):  4.701E-02 0.000E+00

     total cpu time spent up to now is        0.9 secs

     total energy              =    3612.32652435 Ry
     estimated scf accuracy    <       0.00000004 Ry

     iteration # 10     ecut=     5.00 Ry     beta= 0.70
     Davidson diagonalization with overlap

---- Real-time Memory Report at c_bands before calling an iterative solver
            40 MiB given to the printing process from OS
             0 MiB allocation reported by mallinfo(arena+hblkhd)
          4526 MiB available memory on the node where the printing process lives
------------------
     ethr =  1.80E-10,  avg # of iterations =  2.0

     negative rho (up, down):  4.701E-02 0.000E+00

     total cpu time spent up to now is        1.0 secs

     total energy              =    3612.32652437 Ry
     estimated scf accuracy    <       0.00000001 Ry

     iteration # 11     ecut=     5.00 Ry     beta= 0.70
     Davidson diagonalization with overlap

---- Real-time Memory Report at c_bands before calling an iterative solver
            40 MiB given to the printing process from OS
             0 MiB allocation reported by mallinfo(arena+hblkhd)
          4526 MiB available memory on the node where the printing process lives
------------------
     ethr =  4.19E-11,  avg # of iterations =  2.3

     negative rho (up, down):  4.701E-02 0.000E+00

     total cpu time spent up to now is        1.1 secs

     End of self-consistent calculation

          k = 0.0000 0.0000 0.0000 (    81 PWs)   bands (ev):

   -77.1647 -66.8072 -24.8063 -24.8050 -23.0588 -15.4436 -14.2618 -14.2617
     5.5026   8.7345  11.0058  11.5600  13.7356  13.7361  14.1447  19.7967

     occupation numbers 
     1.0000   1.0000   1.0000   1.0000   1.0000   1.0000   1.0000   1.0000
     1.0000   1.0000   1.0000   1.0000  -0.0000  -0.0000  -0.0000  -0.0000

          k = 0.0000 0.0000 0.2500 (    77 PWs)   bands (ev):

   -75.9329 -65.2740 -24.4150 -24.4138 -20.9948 -13.1118 -13.1116 -12.2897
     6.2711   8.8997  11.8690  12.4775  13.1017  13.1022  15.0751  19.4330

     occupation numbers 
     1.0000   1.0000   1.0000   1.0000   1.0000   1.0000   1.0000   1.0000
     1.0000   1.0000   1.0000   1.0000   0.1276   0.1257  -0.0000  -0.0000

          k = 0.0000 0.0000-0.5000 (    70 PWs)   bands (ev):

   -73.4142 -63.2166 -20.5505 -20.5493 -20.2281 -13.1349 -13.1349  -7.6048
     6.3638   9.8115  11.8702  12.8020  14.2637  14.2638  16.2550  18.5669

     occupation numbers 
     1.0000   1.0000   1.0000   1.0000   1.0000   1.0000   1.0000   1.0000
     1.0000   1.0000   1.0000   1.0186  -0.0000  -0.0000  -0.0000  -0.0000

          k = 0.0000 0.2500 0.2500 (    76 PWs)   bands (ev):

   -74.7356 -65.3960 -22.9683 -21.9949 -20.4285 -14.6032 -13.1538 -12.9173
     7.1767  10.0412  11.9281  12.6198  13.0489  14.1342  14.8957  16.4041

     occupation numbers 
     1.0000   1.0000   1.0000   1.0000   1.0000   1.0000   1.0000   1.0000
     1.0000   1.0000   1.0000   1.0001   0.4027  -0.0000  -0.0000  -0.0000

          k = 0.0000 0.2500-0.5000 (    78 PWs)   bands (ev):

   -75.2030 -65.6240 -23.8188 -22.7523 -20.9208 -14.9142 -13.5716 -12.9542
     7.8882  10.0222  12.5296  12.7790  12.9274  13.4229  16.6193  16.9301

     occupation numbers 
     1.0000   1.0000   1.0000   1.0000   1.0000   1.0000   1.0000   1.0000
     1.0000   1.0000   1.0000   1.0120   0.9840  -0.0002  -0.0000  -0.0000

          k = 0.0000-0.5000-0.5000 (    80 PWs)   bands (ev):

   -75.9208 -66.1793 -24.4546 -21.2478 -21.1955 -17.0042 -13.9958 -13.8583
     9.9289  11.4113  12.7699  12.8623  13.7562  14.0720  14.8019  14.8773

     occupation numbers 
     1.0000   1.0000   1.0000   1.0000   1.0000   1.0000   1.0000   1.0000
     1.0000   1.0000   1.0098   1.0353  -0.0000  -0.0000  -0.0000  -0.0000

          k = 0.2500 0.2500 0.2500 (    78 PWs)   bands (ev):

   -75.1846 -65.7013 -22.9111 -21.9657 -21.3524 -15.2831 -13.7247 -13.4032
     7.9208  11.3829  12.0209  12.5655  12.6009  13.2122  14.6799  15.2348

     occupation numbers 
     1.0000   1.0000   1.0000   1.0000   1.0000   1.0000   1.0000   1.0000
     1.0000   1.0000   1.0000   1.0000   1.0000  -0.0343  -0.0000  -0.0000

          k = 0.2500 0.2500-0.5000 (    80 PWs)   bands (ev):

   -75.7465 -65.7549 -23.5572 -23.2031 -22.4313 -15.3571 -14.2880 -12.9771
     8.9602  10.9153  11.3921  12.3321  13.4988  13.8533  15.4170  16.8794

     occupation numbers 
     1.0000   1.0000   1.0000   1.0000   1.0000   1.0000   1.0000   1.0000
     1.0000   1.0000   1.0000   1.0000  -0.0000  -0.0000  -0.0000  -0.0000

          k = 0.2500-0.5000-0.5000 (    72 PWs)   bands (ev):

   -73.4920 -64.6361 -20.4858 -20.4484 -19.8651 -12.5651 -12.3655 -12.1842
    10.2942  11.4563  11.7377  11.8036  15.4397  15.6476  17.0799  17.4732

     occupation numbers 
     1.0000   1.0000   1.0000   1.0000   1.0000   1.0000   1.0000   1.0000
     1.0000   1.0000   1.0000   1.0000  -0.0000  -0.0000  -0.0000  -0.0000

          k =-0.5000-0.5000-0.5000 (    88 PWs)   bands (ev):

   -78.1932 -67.5488 -27.0510 -27.0500 -24.4220 -17.0269 -14.8554 -14.8552
     9.8836   9.8896   9.8902  11.0171  15.7661  15.9306  15.9981  16.1784

     occupation numbers 
     1.0000   1.0000   1.0000   1.0000   1.0000   1.0000   1.0000   1.0000
     1.0000   1.0000   1.0000   1.0000  -0.0000  -0.0000  -0.0000  -0.0000

          k = 0.2500 0.0000 0.0000 (    77 PWs)   bands (ev):

   -75.2449 -65.7754 -23.5243 -22.3017 -20.3771 -14.6497 -14.0363 -12.9545
     6.3992  10.4033  11.6358  12.3013  13.2611  14.4874  14.6476  17.6503

     occupation numbers 
     1.0000   1.0000   1.0000   1.0000   1.0000   1.0000   1.0000   1.0000
     1.0000   1.0000   1.0000   1.0000  -0.0196  -0.0000  -0.0000  -0.0000

          k = 0.0000 0.2500 0.0000 (    77 PWs)   bands (ev):

   -75.2450 -65.7752 -23.5255 -22.3017 -20.3759 -14.6497 -14.0364 -12.9542
     6.3993  10.4029  11.6358  12.3013  13.2611  14.4868  14.6480  17.6505

     occupation numbers 
     1.0000   1.0000   1.0000   1.0000   1.0000   1.0000   1.0000   1.0000
     1.0000   1.0000   1.0000   1.0000  -0.0196  -0.0000  -0.0000  -0.0000

          k =-0.5000 0.0000 0.0000 (    70 PWs)   bands (ev):

   -72.4857 -63.9470 -20.4872 -20.3575 -17.6592 -13.0491 -12.8678 -10.6450
     9.8246  11.0267  12.9220  12.9836  15.0559  15.0647  15.2273  15.2778

     occupation numbers 
     1.0000   1.0000   1.0000   1.0000   1.0000   1.0000   1.0000   1.0000
     1.0000   1.0000   0.9943   0.7866  -0.0000  -0.0000  -0.0000  -0.0000

          k = 0.0000-0.5000 0.0000 (    70 PWs)   bands (ev):

   -72.4857 -63.9468 -20.4885 -20.3576 -17.6577 -13.0492 -12.8677 -10.6449
     9.8249  11.0260  12.9210  12.9836  15.0550  15.0654  15.2275  15.2797

     occupation numbers 
     1.0000   1.0000   1.0000   1.0000   1.0000   1.0000   1.0000   1.0000
     1.0000   1.0000   0.9960   0.7867  -0.0000  -0.0000  -0.0000  -0.0000

          k = 0.2500 0.0000-0.2500 (    76 PWs)   bands (ev):

   -74.7356 -65.3960 -22.9691 -21.9936 -20.4289 -14.6033 -13.1537 -12.9173
     7.1767  10.0413  11.9280  12.6199  13.0488  14.1346  14.8955  16.4041

     occupation numbers 
     1.0000   1.0000   1.0000   1.0000   1.0000   1.0000   1.0000   1.0000
     1.0000   1.0000   1.0000   1.0001   0.4032  -0.0000  -0.0000  -0.0000

          k = 0.2500-0.2500 0.0000 (    76 PWs)   bands (ev):

   -74.7426 -65.3381 -23.9489 -21.0390 -20.3195 -13.8123 -13.4557 -13.0308
     7.3804  10.6121  12.1230  12.7257  13.0722  13.5266  15.4735  15.9382

     occupation numbers 
     1.0000   1.0000   1.0000   1.0000   1.0000   1.0000   1.0000   1.0000
     1.0000   1.0000   1.0000   1.0032   0.2677  -0.0000  -0.0000  -0.0000

          k = 0.2500 0.0000 0.5000 (    78 PWs)   bands (ev):

   -75.2029 -65.6242 -23.8176 -22.7537 -20.9207 -14.9141 -13.5718 -12.9543
     7.8884  10.0225  12.5297  12.7798  12.9263  13.4232  16.6194  16.9296

     occupation numbers 
     1.0000   1.0000   1.0000   1.0000   1.0000   1.0000   1.0000   1.0000
     1.0000   1.0000   1.0000   1.0122   0.9862  -0.0002  -0.0000  -0.0000

          k =-0.5000-0.2500 0.0000 (    78 PWs)   bands (ev):

   -74.9825 -65.5406 -22.6795 -22.3511 -21.7197 -15.1506 -13.3946 -12.8931
     9.1551  10.3214  13.2410  13.3074  13.3133  13.3261  13.7921  14.0028

     occupation numbers 
     1.0000   1.0000   1.0000   1.0000   1.0000   1.0000   1.0000   1.0000
     1.0000   1.0000  -0.0264  -0.0076  -0.0066  -0.0047  -0.0000  -0.0000

          k = 0.0000-0.5000 0.2500 (    78 PWs)   bands (ev):

   -75.1417 -65.6693 -22.8442 -21.2963 -21.1053 -15.4001 -13.9069 -13.8597
     9.5171  10.6889  13.1250  13.2630  14.3026  14.4953  15.0264  15.3054

     occupation numbers 
     1.0000   1.0000   1.0000   1.0000   1.0000   1.0000   1.0000   1.0000
     1.0000   1.0000   0.0491  -0.0190  -0.0000  -0.0000  -0.0000  -0.0000

          k = 0.2500-0.5000 0.0000 (    78 PWs)   bands (ev):

   -74.9825 -65.5406 -22.6796 -22.3523 -21.7183 -15.1506 -13.3945 -12.8931
     9.1552  10.3211  13.2400  13.3076  13.3137  13.3262  13.7927  14.0027

     occupation numbers 
     1.0000   1.0000   1.0000   1.0000   1.0000   1.0000   1.0000   1.0000
     1.0000   1.0000  -0.0267  -0.0076  -0.0065  -0.0047  -0.0000  -0.0000

          k =-0.5000 0.0000 0.2500 (    78 PWs)   bands (ev):

   -75.1417 -65.6695 -22.8430 -21.2962 -21.1059 -15.4002 -13.9077 -13.8598
     9.5168  10.6896  13.1249  13.2635  14.3034  14.4929  15.0261  15.3053

     occupation numbers 
     1.0000   1.0000   1.0000   1.0000   1.0000   1.0000   1.0000   1.0000
     1.0000   1.0000   0.0493  -0.0188  -0.0000  -0.0000  -0.0000  -0.0000

          k =-0.5000 0.0000 0.5000 (    80 PWs)   bands (ev):

   -75.9207 -66.1796 -24.4535 -21.2484 -21.1954 -17.0042 -13.9966 -13.8585
     9.9289  11.4123  12.7714  12.8607  13.7567  14.0702  14.8040  14.8757

     occupation numbers 
     1.0000   1.0000   1.0000   1.0000   1.0000   1.0000   1.0000   1.0000
     1.0000   1.0000   1.0101   1.0352  -0.0000  -0.0000  -0.0000  -0.0000

          k =-0.5000 0.5000 0.0000 (    80 PWs)   bands (ev):

   -75.4841 -65.8423 -24.3085 -21.6003 -21.5988 -16.7976 -13.3017 -13.3016
     8.5880   9.8972  12.6805  12.6810  13.2055  13.2366  15.6073  15.6086

     occupation numbers 
     1.0000   1.0000   1.0000   1.0000   1.0000   1.0000   1.0000   1.0000
     1.0000   1.0000   1.0008   1.0008  -0.0352  -0.0279  -0.0000  -0.0000

          k =-0.5000-0.2500 0.2500 (    80 PWs)   bands (ev):

   -75.8261 -66.1019 -23.7062 -23.3232 -22.4447 -15.3332 -13.5688 -13.4980
     9.4755  10.6612  11.7540  11.7980  13.9307  14.0364  14.3828  14.5044

     occupation numbers 
     1.0000   1.0000   1.0000   1.0000   1.0000   1.0000   1.0000   1.0000
     1.0000   1.0000   1.0000   1.0000  -0.0000  -0.0000  -0.0000  -0.0000

          k =-0.2500-0.5000 0.2500 (    80 PWs)   bands (ev):

   -75.8262 -66.1018 -23.7077 -23.3220 -22.4446 -15.3331 -13.5702 -13.4965
     9.4757  10.6606  11.7544  11.7976  13.9308  14.0364  14.3830  14.5040

     occupation numbers 
     1.0000   1.0000   1.0000   1.0000   1.0000   1.0000   1.0000   1.0000
     1.0000   1.0000   1.0000   1.0000  -0.0000  -0.0000  -0.0000  -0.0000

          k =-0.5000 0.2500 0.5000 (    72 PWs)   bands (ev):

   -73.4918 -64.6363 -20.4803 -20.4530 -19.8649 -12.5652 -12.3653 -12.1851
    10.2942  11.4565  11.7391  11.8022  15.4395  15.6478  17.0811  17.4739

     occupation numbers 
     1.0000   1.0000   1.0000   1.0000   1.0000   1.0000   1.0000   1.0000
     1.0000   1.0000   1.0000   1.0000  -0.0000  -0.0000  -0.0000  -0.0000

          k =-0.5000 0.5000 0.2500 (    72 PWs)   bands (ev):

   -72.9123 -64.2078 -20.6552 -20.6538 -19.7185 -12.2926 -11.7065 -11.7064
     9.9031  10.9830  11.7582  11.7589  14.4625  14.5188  17.4335  17.4345

     occupation numbers 
     1.0000   1.0000   1.0000   1.0000   1.0000   1.0000   1.0000   1.0000
     1.0000   1.0000   1.0000   1.0000  -0.0000  -0.0000  -0.0000  -0.0000

     the Fermi energy is    13.0331 ev

!    total energy              =    3612.32652439 Ry
     estimated scf accuracy    <          4.0E-10 Ry
     smearing contrib. (-TS)   =      -0.00005680 Ry
     internal energy E=F+TS    =    3612.32658118 Ry

     The total energy is F=E-TS. E is the sum of the following terms:
     one-electron contribution =     -47.99892173 Ry
     hartree contribution      =      21.94800874 Ry
     xc contribution           =     -24.37782861 Ry
     ewald contribution        =    3662.75532278 Ry

     convergence has been achieved in  11 iterations

     Writing all to output data dir ./tmp/tio2_ecut05.save/

     init_run     :      0.17s CPU      0.17s WALL (       1 calls)
     electrons    :      0.79s CPU      0.80s WALL (       1 calls)

     Called by init_run:
     wfcinit      :      0.03s CPU      0.03s WALL (       1 calls)
     wfcinit:atom :      0.00s CPU      0.00s WALL (      27 calls)
     wfcinit:wfcr :      0.03s CPU      0.03s WALL (      27 calls)
     potinit      :      0.03s CPU      0.03s WALL (       1 calls)
     hinit0       :      0.10s CPU      0.10s WALL (       1 calls)

     Called by electrons:
     c_bands      :      0.67s CPU      0.68s WALL (      11 calls)
     sum_band     :      0.08s CPU      0.08s WALL (      11 calls)
     v_of_rho     :      0.01s CPU      0.01s WALL (      12 calls)
     v_h          :      0.00s CPU      0.00s WALL (      12 calls)
     v_xc         :      0.01s CPU      0.01s WALL (      12 calls)
     newd         :      0.03s CPU      0.03s WALL (      12 calls)
     mix_rho      :      0.00s CPU      0.00s WALL (      11 calls)

     Called by c_bands:
     init_us_2    :      0.01s CPU      0.01s WALL (     621 calls)
     init_us_2:cp :      0.01s CPU      0.01s WALL (     621 calls)
     cegterg      :      0.65s CPU      0.66s WALL (     297 calls)

     Called by sum_band:
     sum_band:wei :      0.00s CPU      0.00s WALL (      11 calls)
     sum_band:loo :      0.04s CPU      0.05s WALL (      11 calls)
     sum_band:buf :      0.00s CPU      0.00s WALL (     297 calls)
     sum_band:ini :      0.00s CPU      0.00s WALL (     297 calls)
     sum_band:cal :      0.01s CPU      0.02s WALL (     297 calls)
     sum_band:bec :      0.00s CPU      0.00s WALL (     297 calls)
     addusdens    :      0.03s CPU      0.03s WALL (      11 calls)
                                        0.00s GPU  (      11 calls)
     addusd:skk   :      0.00s CPU      0.00s WALL (      22 calls)
                                        0.00s GPU  (      22 calls)

     Called by *egterg:
     cdiaghg      :      0.23s CPU      0.23s WALL (    1254 calls)
     cegterg:over :      0.04s CPU      0.04s WALL (     957 calls)
     cegterg:upda :      0.03s CPU      0.03s WALL (     957 calls)
     cegterg:last :      0.07s CPU      0.07s WALL (     661 calls)
     h_psi        :      0.24s CPU      0.24s WALL (    1281 calls)
     s_psi        :      0.05s CPU      0.05s WALL (    1281 calls)
     g_psi        :      0.00s CPU      0.00s WALL (     957 calls)

     Called by h_psi:
     h_psi:calbec :      0.04s CPU      0.04s WALL (    1281 calls)
     vloc_psi     :      0.14s CPU      0.14s WALL (    1281 calls)
     add_vuspsi   :      0.05s CPU      0.05s WALL (    1281 calls)

     General routines
     calbec       :      0.06s CPU      0.06s WALL (    1578 calls)
     fft          :      0.02s CPU      0.02s WALL (     154 calls)
     ffts         :      0.03s CPU      0.03s WALL (      23 calls)
     fftw         :      0.11s CPU      0.11s WALL (   30088 calls)
     interpolate  :      0.03s CPU      0.03s WALL (      12 calls)

     Parallel routines

     PWSCF        :      1.06s CPU      1.08s WALL


   This run was terminated on:  21:38:43  17Jul2025            

=------------------------------------------------------------------------------=
   JOB DONE.
=------------------------------------------------------------------------------=
