
     Program PWSCF v.7.2 starts on 17Jul2025 at 22:28:51 

     This program is part of the open-source Quantum ESPRESSO suite
     for quantum simulation of materials; please cite
         "P. Giannozzi et al., J. Phys.:Condens. Matter 21 395502 (2009);
         "P. Giannozzi et al., J. Phys.:Condens. Matter 29 465901 (2017);
         "P. Giannozzi et al., J. Chem. Phys. 152 154105 (2020);
          URL http://www.quantum-espresso.org", 
     in publications or presentations arising from this work. More details at
     http://www.quantum-espresso.org/quote

     Parallel version (MPI), running on     1 processors

     MPI processes distributed on     1 nodes
     4535 MiB available memory on the printing compute node when the environment starts

     Waiting for input...
     Reading input from standard input

     Current dimensions of program PWSCF are:
     Max number of different atomic species (ntypx) = 10
     Max number of k-points (npk) =  40000
     Max angular momentum in pseudopotentials (lmaxx) =  4
     file Ti.pbe-spn-rrkjus_psl.1.0.0.UPF: wavefunction(s)  3S 3D renormalized

     Subspace diagonalization in iterative solution of the eigenvalue problem:
     a serial algorithm will be used


     G-vector sticks info
     --------------------
     sticks:   dense  smooth     PW     G-vecs:    dense   smooth      PW
     Sum        1369     681    221                38641    13613    2373

     Using Slab Decomposition



     bravais-lattice index     =            1
     lattice parameter (alat)  =       7.3700  a.u.
     unit-cell volume          =     400.3156 (a.u.)^3
     number of atoms/cell      =            3
     number of atomic types    =            2
     number of electrons       =        24.00
     number of Kohn-Sham states=           16
     kinetic-energy cutoff     =      40.0000  Ry
     charge density cutoff     =     320.0000  Ry
     scf convergence threshold =      1.0E-08
     mixing beta               =       0.7000
     number of iterations used =            8  plain     mixing
     energy convergence thresh.=      1.0E-04
     force convergence thresh. =      1.0E-03
     Exchange-correlation= PBE
                           (   1   4   3   4   0   0   0)
     nstep                     =           50


     celldm(1)=   7.370000  celldm(2)=   0.000000  celldm(3)=   0.000000
     celldm(4)=   0.000000  celldm(5)=   0.000000  celldm(6)=   0.000000

     crystal axes: (cart. coord. in units of alat)
               a(1) = (   1.000000   0.000000   0.000000 )  
               a(2) = (   0.000000   1.000000   0.000000 )  
               a(3) = (   0.000000   0.000000   1.000000 )  

     reciprocal axes: (cart. coord. in units 2 pi/alat)
               b(1) = (  1.000000  0.000000  0.000000 )  
               b(2) = (  0.000000  1.000000  0.000000 )  
               b(3) = (  0.000000  0.000000  1.000000 )  


     PseudoPot. # 1 for Ti read from file:
     ../pseudo/Ti.pbe-spn-rrkjus_psl.1.0.0.UPF
     MD5 check sum: e281089c08e14b8efcf92e44a67ada65
     Pseudo is Ultrasoft + core correction, Zval = 12.0
     Generated using &quot;atomic&quot; code by A. Dal Corso  v.6.2.2
     Using radial grid of 1177 points,  6 beta functions with: 
                l(1) =   0
                l(2) =   0
                l(3) =   1
                l(4) =   1
                l(5) =   2
                l(6) =   2
     Q(r) pseudized with 0 coefficients 


     PseudoPot. # 2 for O  read from file:
     ../pseudo/O.pbe-n-rrkjus_psl.1.0.0.UPF
     MD5 check sum: 91400c9766925bcf19f520983a725ff0
     Pseudo is Ultrasoft + core correction, Zval =  6.0
     Generated using &quot;atomic&quot; code by A. Dal Corso  v.6.3MaX
     Using radial grid of 1095 points,  4 beta functions with: 
                l(1) =   0
                l(2) =   0
                l(3) =   1
                l(4) =   1
     Q(r) pseudized with 0 coefficients 


     atomic species   valence    mass     pseudopotential
        Ti            12.00    47.86700     Ti( 1.00)
        O              6.00    15.99900     O ( 1.00)

      4 Sym. Ops. (no inversion) found


                                    s                        frac. trans.

      isym =  1     identity                                     

 cryst.   s( 1) = (     1          0          0      )
                  (     0          1          0      )
                  (     0          0          1      )

 cart.    s( 1) = (  1.0000000  0.0000000  0.0000000 )
                  (  0.0000000  1.0000000  0.0000000 )
                  (  0.0000000  0.0000000  1.0000000 )


      isym =  2     180 deg rotation - cart. axis [0,1,0]        

 cryst.   s( 2) = (    -1          0          0      )
                  (     0          1          0      )
                  (     0          0         -1      )

 cart.    s( 2) = ( -1.0000000  0.0000000  0.0000000 )
                  (  0.0000000  1.0000000  0.0000000 )
                  (  0.0000000  0.0000000 -1.0000000 )


      isym =  3     inv. 180 deg rotation - cart. axis [0,0,1]   

 cryst.   s( 3) = (     1          0          0      )
                  (     0          1          0      )
                  (     0          0         -1      )

 cart.    s( 3) = (  1.0000000  0.0000000  0.0000000 )
                  (  0.0000000  1.0000000  0.0000000 )
                  (  0.0000000  0.0000000 -1.0000000 )


      isym =  4     inv. 180 deg rotation - cart. axis [1,0,0]   

 cryst.   s( 4) = (    -1          0          0      )
                  (     0          1          0      )
                  (     0          0          1      )

 cart.    s( 4) = ( -1.0000000  0.0000000  0.0000000 )
                  (  0.0000000  1.0000000  0.0000000 )
                  (  0.0000000  0.0000000  1.0000000 )


     point group C_2v (mm2) 
     there are  4 classes
     the character table:

       E     C2    s_v   s_v' 
A_1    1.00  1.00  1.00  1.00
A_2    1.00  1.00 -1.00 -1.00
B_1    1.00 -1.00  1.00 -1.00
B_2    1.00 -1.00 -1.00  1.00

     the symmetry operations in each class and the name of the first element:

     E        1
          identity                                               
     C2       2
          180 deg rotation - cart. axis [0,1,0]                  
     s_v      3
          inv. 180 deg rotation - cart. axis [0,0,1]             
     s_v'     4
          inv. 180 deg rotation - cart. axis [1,0,0]             

   Cartesian axes

     site n.     atom                  positions (alat units)
         1           Ti  tau(   1) = (   0.0000000   0.0000000   0.0000000  )
         2           O   tau(   2) = (   0.4987133   0.4987133   0.0000000  )
         3           O   tau(   3) = (  -0.4987133   0.4987133   0.0000000  )

   Crystallographic axes

     site n.     atom                  positions (cryst. coord.)
         1           Ti  tau(   1) = (  0.0000000  0.0000000  0.0000000  )
         2           O   tau(   2) = (  0.4987133  0.4987133  0.0000000  )
         3           O   tau(   3) = ( -0.4987133  0.4987133  0.0000000  )

     number of k points=    27  Methfessel-Paxton smearing, width (Ry)=  0.0100
                       cart. coord. in units 2pi/alat
        k(    1) = (   0.0000000   0.0000000   0.0000000), wk =   0.0312500
        k(    2) = (   0.0000000   0.0000000   0.2500000), wk =   0.0625000
        k(    3) = (   0.0000000   0.0000000  -0.5000000), wk =   0.0312500
        k(    4) = (   0.0000000   0.2500000   0.2500000), wk =   0.1250000
        k(    5) = (   0.0000000   0.2500000  -0.5000000), wk =   0.0625000
        k(    6) = (   0.0000000  -0.5000000  -0.5000000), wk =   0.0312500
        k(    7) = (   0.2500000   0.2500000   0.2500000), wk =   0.2500000
        k(    8) = (   0.2500000   0.2500000  -0.5000000), wk =   0.1250000
        k(    9) = (   0.2500000  -0.5000000  -0.5000000), wk =   0.0625000
        k(   10) = (  -0.5000000  -0.5000000  -0.5000000), wk =   0.0312500
        k(   11) = (   0.2500000   0.0000000   0.0000000), wk =   0.0625000
        k(   12) = (   0.0000000   0.2500000   0.0000000), wk =   0.0625000
        k(   13) = (  -0.5000000   0.0000000   0.0000000), wk =   0.0312500
        k(   14) = (   0.0000000  -0.5000000   0.0000000), wk =   0.0312500
        k(   15) = (   0.2500000   0.0000000  -0.2500000), wk =   0.1250000
        k(   16) = (   0.2500000  -0.2500000   0.0000000), wk =   0.1250000
        k(   17) = (   0.2500000   0.0000000   0.5000000), wk =   0.0625000
        k(   18) = (  -0.5000000  -0.2500000   0.0000000), wk =   0.0625000
        k(   19) = (   0.0000000  -0.5000000   0.2500000), wk =   0.0625000
        k(   20) = (   0.2500000  -0.5000000   0.0000000), wk =   0.0625000
        k(   21) = (  -0.5000000   0.0000000   0.2500000), wk =   0.0625000
        k(   22) = (  -0.5000000   0.0000000   0.5000000), wk =   0.0312500
        k(   23) = (  -0.5000000   0.5000000   0.0000000), wk =   0.0312500
        k(   24) = (  -0.5000000  -0.2500000   0.2500000), wk =   0.1250000
        k(   25) = (  -0.2500000  -0.5000000   0.2500000), wk =   0.1250000
        k(   26) = (  -0.5000000   0.2500000   0.5000000), wk =   0.0625000
        k(   27) = (  -0.5000000   0.5000000   0.2500000), wk =   0.0625000

                       cryst. coord.
        k(    1) = (   0.0000000   0.0000000   0.0000000), wk =   0.0312500
        k(    2) = (   0.0000000   0.0000000   0.2500000), wk =   0.0625000
        k(    3) = (   0.0000000   0.0000000  -0.5000000), wk =   0.0312500
        k(    4) = (   0.0000000   0.2500000   0.2500000), wk =   0.1250000
        k(    5) = (   0.0000000   0.2500000  -0.5000000), wk =   0.0625000
        k(    6) = (   0.0000000  -0.5000000  -0.5000000), wk =   0.0312500
        k(    7) = (   0.2500000   0.2500000   0.2500000), wk =   0.2500000
        k(    8) = (   0.2500000   0.2500000  -0.5000000), wk =   0.1250000
        k(    9) = (   0.2500000  -0.5000000  -0.5000000), wk =   0.0625000
        k(   10) = (  -0.5000000  -0.5000000  -0.5000000), wk =   0.0312500
        k(   11) = (   0.2500000   0.0000000   0.0000000), wk =   0.0625000
        k(   12) = (   0.0000000   0.2500000   0.0000000), wk =   0.0625000
        k(   13) = (  -0.5000000   0.0000000   0.0000000), wk =   0.0312500
        k(   14) = (   0.0000000  -0.5000000   0.0000000), wk =   0.0312500
        k(   15) = (   0.2500000   0.0000000  -0.2500000), wk =   0.1250000
        k(   16) = (   0.2500000  -0.2500000   0.0000000), wk =   0.1250000
        k(   17) = (   0.2500000   0.0000000   0.5000000), wk =   0.0625000
        k(   18) = (  -0.5000000  -0.2500000   0.0000000), wk =   0.0625000
        k(   19) = (   0.0000000  -0.5000000   0.2500000), wk =   0.0625000
        k(   20) = (   0.2500000  -0.5000000   0.0000000), wk =   0.0625000
        k(   21) = (  -0.5000000   0.0000000   0.2500000), wk =   0.0625000
        k(   22) = (  -0.5000000   0.0000000   0.5000000), wk =   0.0312500
        k(   23) = (  -0.5000000   0.5000000   0.0000000), wk =   0.0312500
        k(   24) = (  -0.5000000  -0.2500000   0.2500000), wk =   0.1250000
        k(   25) = (  -0.2500000  -0.5000000   0.2500000), wk =   0.1250000
        k(   26) = (  -0.5000000   0.2500000   0.5000000), wk =   0.0625000
        k(   27) = (  -0.5000000   0.5000000   0.2500000), wk =   0.0625000

     Dense  grid:    38641 G-vectors     FFT dimensions: (  45,  45,  45)

     Smooth grid:    13613 G-vectors     FFT dimensions: (  30,  30,  30)

     Dynamical RAM for                 wfc:       0.42 MB

     Dynamical RAM for     wfc (w. buffer):      11.69 MB

     Dynamical RAM for           str. fact:       1.18 MB

     Dynamical RAM for           local pot:       0.00 MB

     Dynamical RAM for          nlocal pot:       0.89 MB

     Dynamical RAM for                qrad:       2.87 MB

     Dynamical RAM for          rho,v,vnew:       3.85 MB

     Dynamical RAM for               rhoin:       1.28 MB

     Dynamical RAM for            rho*nmix:       9.43 MB

     Dynamical RAM for           G-vectors:       2.31 MB

     Dynamical RAM for          h,s,v(r/c):       0.05 MB

     Dynamical RAM for          <psi|beta>:       0.01 MB

     Dynamical RAM for                 psi:       0.83 MB

     Dynamical RAM for                hpsi:       0.83 MB

     Dynamical RAM for                spsi:       0.83 MB

     Dynamical RAM for      wfcinit/wfcrot:       0.95 MB

     Dynamical RAM for           addusdens:     110.85 MB

     Dynamical RAM for          addusforce:     112.33 MB

     Estimated static dynamical RAM per process >      29.33 MB

     Estimated max dynamical RAM per process >     151.09 MB

     Check: negative core charge=   -0.000009

     Initial potential from superposition of free atoms

     starting charge      23.9985, renormalised to      24.0000
     Starting wfcs are   18 randomized atomic wfcs

     total cpu time spent up to now is        1.3 secs

     Self-consistent Calculation

     iteration #  1     ecut=    40.00 Ry     beta= 0.70
     Davidson diagonalization with overlap

---- Real-time Memory Report at c_bands before calling an iterative solver
           155 MiB given to the printing process from OS
             0 MiB allocation reported by mallinfo(arena+hblkhd)
          4500 MiB available memory on the node where the printing process lives
------------------
     ethr =  1.00E-02,  avg # of iterations =  5.7

     total cpu time spent up to now is        3.1 secs

     total energy              =    3529.26706910 Ry
     estimated scf accuracy    <       7.37717279 Ry

     iteration #  2     ecut=    40.00 Ry     beta= 0.70
     Davidson diagonalization with overlap

---- Real-time Memory Report at c_bands before calling an iterative solver
           195 MiB given to the printing process from OS
             0 MiB allocation reported by mallinfo(arena+hblkhd)
          4467 MiB available memory on the node where the printing process lives
------------------
     ethr =  1.00E-02,  avg # of iterations =  6.0

     total cpu time spent up to now is        4.9 secs

     total energy              =    3526.60589575 Ry
     estimated scf accuracy    <       9.38220943 Ry

     iteration #  3     ecut=    40.00 Ry     beta= 0.70
     Davidson diagonalization with overlap

---- Real-time Memory Report at c_bands before calling an iterative solver
           196 MiB given to the printing process from OS
             0 MiB allocation reported by mallinfo(arena+hblkhd)
          4466 MiB available memory on the node where the printing process lives
------------------
     ethr =  1.00E-02,  avg # of iterations =  3.3

     total cpu time spent up to now is        6.2 secs

     total energy              =    3526.85818468 Ry
     estimated scf accuracy    <       1.47440546 Ry

     iteration #  4     ecut=    40.00 Ry     beta= 0.70
     Davidson diagonalization with overlap

---- Real-time Memory Report at c_bands before calling an iterative solver
           197 MiB given to the printing process from OS
             0 MiB allocation reported by mallinfo(arena+hblkhd)
          4466 MiB available memory on the node where the printing process lives
------------------
     ethr =  6.14E-03,  avg # of iterations =  6.6

     total cpu time spent up to now is        8.0 secs

     total energy              =    3527.77579118 Ry
     estimated scf accuracy    <      14.11588754 Ry

     iteration #  5     ecut=    40.00 Ry     beta= 0.70
     Davidson diagonalization with overlap

---- Real-time Memory Report at c_bands before calling an iterative solver
           197 MiB given to the printing process from OS
             0 MiB allocation reported by mallinfo(arena+hblkhd)
          4465 MiB available memory on the node where the printing process lives
------------------
     ethr =  6.14E-03,  avg # of iterations =  3.6

     total cpu time spent up to now is        9.3 secs

     total energy              =    3525.97016263 Ry
     estimated scf accuracy    <       0.13254564 Ry

     iteration #  6     ecut=    40.00 Ry     beta= 0.70
     Davidson diagonalization with overlap

---- Real-time Memory Report at c_bands before calling an iterative solver
           198 MiB given to the printing process from OS
             0 MiB allocation reported by mallinfo(arena+hblkhd)
          4465 MiB available memory on the node where the printing process lives
------------------
     ethr =  5.52E-04,  avg # of iterations =  4.9

     total cpu time spent up to now is       10.7 secs

     total energy              =    3526.04409192 Ry
     estimated scf accuracy    <       0.60801876 Ry

     iteration #  7     ecut=    40.00 Ry     beta= 0.70
     Davidson diagonalization with overlap

---- Real-time Memory Report at c_bands before calling an iterative solver
           200 MiB given to the printing process from OS
             0 MiB allocation reported by mallinfo(arena+hblkhd)
          4461 MiB available memory on the node where the printing process lives
------------------
     ethr =  5.52E-04,  avg # of iterations =  3.0

     total cpu time spent up to now is       11.9 secs

     total energy              =    3526.03958296 Ry
     estimated scf accuracy    <       0.11986756 Ry

     iteration #  8     ecut=    40.00 Ry     beta= 0.70
     Davidson diagonalization with overlap

---- Real-time Memory Report at c_bands before calling an iterative solver
           200 MiB given to the printing process from OS
             0 MiB allocation reported by mallinfo(arena+hblkhd)
          4461 MiB available memory on the node where the printing process lives
------------------
     ethr =  4.99E-04,  avg # of iterations =  3.0

     total cpu time spent up to now is       12.9 secs

     total energy              =    3526.02703135 Ry
     estimated scf accuracy    <       0.00785865 Ry

     iteration #  9     ecut=    40.00 Ry     beta= 0.70
     Davidson diagonalization with overlap

---- Real-time Memory Report at c_bands before calling an iterative solver
           201 MiB given to the printing process from OS
             0 MiB allocation reported by mallinfo(arena+hblkhd)
          4461 MiB available memory on the node where the printing process lives
------------------
     ethr =  3.27E-05,  avg # of iterations =  5.6

     total cpu time spent up to now is       14.3 secs

     total energy              =    3526.02529532 Ry
     estimated scf accuracy    <       0.00528001 Ry

     iteration # 10     ecut=    40.00 Ry     beta= 0.70
     Davidson diagonalization with overlap

---- Real-time Memory Report at c_bands before calling an iterative solver
           201 MiB given to the printing process from OS
             0 MiB allocation reported by mallinfo(arena+hblkhd)
          4460 MiB available memory on the node where the printing process lives
------------------
     c_bands:  1 eigenvalues not converged
     ethr =  2.20E-05,  avg # of iterations =  2.2

     total cpu time spent up to now is       15.3 secs

     total energy              =    3526.02632733 Ry
     estimated scf accuracy    <       0.00389381 Ry

     iteration # 11     ecut=    40.00 Ry     beta= 0.70
     Davidson diagonalization with overlap

---- Real-time Memory Report at c_bands before calling an iterative solver
           202 MiB given to the printing process from OS
             0 MiB allocation reported by mallinfo(arena+hblkhd)
          4460 MiB available memory on the node where the printing process lives
------------------
     ethr =  1.62E-05,  avg # of iterations =  4.2

     total cpu time spent up to now is       16.6 secs

     total energy              =    3526.02604935 Ry
     estimated scf accuracy    <       0.00920346 Ry

     iteration # 12     ecut=    40.00 Ry     beta= 0.70
     Davidson diagonalization with overlap

---- Real-time Memory Report at c_bands before calling an iterative solver
           202 MiB given to the printing process from OS
             0 MiB allocation reported by mallinfo(arena+hblkhd)
          4459 MiB available memory on the node where the printing process lives
------------------
     ethr =  1.62E-05,  avg # of iterations =  1.4

     total cpu time spent up to now is       17.6 secs

     total energy              =    3526.02646443 Ry
     estimated scf accuracy    <       0.00356626 Ry

     iteration # 13     ecut=    40.00 Ry     beta= 0.70
     Davidson diagonalization with overlap

---- Real-time Memory Report at c_bands before calling an iterative solver
           202 MiB given to the printing process from OS
             0 MiB allocation reported by mallinfo(arena+hblkhd)
          4459 MiB available memory on the node where the printing process lives
------------------
     ethr =  1.49E-05,  avg # of iterations =  2.3

     total cpu time spent up to now is       18.7 secs

     total energy              =    3526.02629941 Ry
     estimated scf accuracy    <       0.00029434 Ry

     iteration # 14     ecut=    40.00 Ry     beta= 0.70
     Davidson diagonalization with overlap

---- Real-time Memory Report at c_bands before calling an iterative solver
           202 MiB given to the printing process from OS
             0 MiB allocation reported by mallinfo(arena+hblkhd)
          4459 MiB available memory on the node where the printing process lives
------------------
     ethr =  1.23E-06,  avg # of iterations =  5.3

     total cpu time spent up to now is       20.0 secs

     total energy              =    3526.02617975 Ry
     estimated scf accuracy    <       0.00016055 Ry

     iteration # 15     ecut=    40.00 Ry     beta= 0.70
     Davidson diagonalization with overlap

---- Real-time Memory Report at c_bands before calling an iterative solver
           202 MiB given to the printing process from OS
             0 MiB allocation reported by mallinfo(arena+hblkhd)
          4459 MiB available memory on the node where the printing process lives
------------------
     ethr =  6.69E-07,  avg # of iterations =  1.4

     total cpu time spent up to now is       21.0 secs

     total energy              =    3526.02622308 Ry
     estimated scf accuracy    <       0.00009155 Ry

     iteration # 16     ecut=    40.00 Ry     beta= 0.70
     Davidson diagonalization with overlap

---- Real-time Memory Report at c_bands before calling an iterative solver
           202 MiB given to the printing process from OS
             0 MiB allocation reported by mallinfo(arena+hblkhd)
          4459 MiB available memory on the node where the printing process lives
------------------
     ethr =  3.81E-07,  avg # of iterations =  4.1

     total cpu time spent up to now is       22.2 secs

     total energy              =    3526.02616234 Ry
     estimated scf accuracy    <       0.00044905 Ry

     iteration # 17     ecut=    40.00 Ry     beta= 0.70
     Davidson diagonalization with overlap

---- Real-time Memory Report at c_bands before calling an iterative solver
           202 MiB given to the printing process from OS
             0 MiB allocation reported by mallinfo(arena+hblkhd)
          4459 MiB available memory on the node where the printing process lives
------------------
     ethr =  3.81E-07,  avg # of iterations =  1.1

     total cpu time spent up to now is       23.2 secs

     total energy              =    3526.02619383 Ry
     estimated scf accuracy    <       0.00023984 Ry

     iteration # 18     ecut=    40.00 Ry     beta= 0.70
     Davidson diagonalization with overlap

---- Real-time Memory Report at c_bands before calling an iterative solver
           202 MiB given to the printing process from OS
             0 MiB allocation reported by mallinfo(arena+hblkhd)
          4459 MiB available memory on the node where the printing process lives
------------------
     ethr =  3.81E-07,  avg # of iterations =  2.7

     total cpu time spent up to now is       24.3 secs

     total energy              =    3526.02618388 Ry
     estimated scf accuracy    <       0.00002802 Ry

     iteration # 19     ecut=    40.00 Ry     beta= 0.70
     Davidson diagonalization with overlap

---- Real-time Memory Report at c_bands before calling an iterative solver
           202 MiB given to the printing process from OS
             0 MiB allocation reported by mallinfo(arena+hblkhd)
          4459 MiB available memory on the node where the printing process lives
------------------
     ethr =  1.17E-07,  avg # of iterations =  1.6

     total cpu time spent up to now is       25.3 secs

     total energy              =    3526.02618516 Ry
     estimated scf accuracy    <       0.00001216 Ry

     iteration # 20     ecut=    40.00 Ry     beta= 0.70
     Davidson diagonalization with overlap

---- Real-time Memory Report at c_bands before calling an iterative solver
           202 MiB given to the printing process from OS
             0 MiB allocation reported by mallinfo(arena+hblkhd)
          4459 MiB available memory on the node where the printing process lives
------------------
     ethr =  5.07E-08,  avg # of iterations =  3.9

     total cpu time spent up to now is       26.5 secs

     total energy              =    3526.02618342 Ry
     estimated scf accuracy    <       0.00000014 Ry

     iteration # 21     ecut=    40.00 Ry     beta= 0.70
     Davidson diagonalization with overlap

---- Real-time Memory Report at c_bands before calling an iterative solver
           202 MiB given to the printing process from OS
             0 MiB allocation reported by mallinfo(arena+hblkhd)
          4459 MiB available memory on the node where the printing process lives
------------------
     ethr =  5.99E-10,  avg # of iterations =  7.4

     total cpu time spent up to now is       28.0 secs

     total energy              =    3526.02618321 Ry
     estimated scf accuracy    <       0.00000043 Ry

     iteration # 22     ecut=    40.00 Ry     beta= 0.70
     Davidson diagonalization with overlap

---- Real-time Memory Report at c_bands before calling an iterative solver
           202 MiB given to the printing process from OS
             0 MiB allocation reported by mallinfo(arena+hblkhd)
          4459 MiB available memory on the node where the printing process lives
------------------
     ethr =  5.99E-10,  avg # of iterations =  2.0

     total cpu time spent up to now is       29.1 secs

     total energy              =    3526.02618321 Ry
     estimated scf accuracy    <       0.00000009 Ry

     iteration # 23     ecut=    40.00 Ry     beta= 0.70
     Davidson diagonalization with overlap

---- Real-time Memory Report at c_bands before calling an iterative solver
           202 MiB given to the printing process from OS
             0 MiB allocation reported by mallinfo(arena+hblkhd)
          4459 MiB available memory on the node where the printing process lives
------------------
     ethr =  3.63E-10,  avg # of iterations =  2.3

     total cpu time spent up to now is       30.3 secs

     End of self-consistent calculation

          k = 0.0000 0.0000 0.0000 (  1743 PWs)   bands (ev):

   -86.6574 -86.6083 -86.5993 -50.4475 -32.2114 -26.9707 -26.5734 -26.5732
     3.0324   5.5599   6.4316   6.7024   6.7079   6.7387   7.1462   7.7671

     occupation numbers 
     1.0000   1.0000   1.0000   1.0000   1.0000   1.0000   1.0000   1.0000
     1.0000   1.0000   1.0047   0.6374   0.6043   0.4140  -0.0001  -0.0000

          k = 0.0000 0.0000 0.2500 (  1707 PWs)   bands (ev):

   -86.6565 -86.6077 -86.5987 -50.4471 -32.1905 -26.9774 -26.5728 -26.5726
     3.1490   5.3254   5.6779   6.7627   6.8878   6.8886   7.6185   7.6187

     occupation numbers 
     1.0000   1.0000   1.0000   1.0000   1.0000   1.0000   1.0000   1.0000
     1.0000   1.0000   1.0000   0.2744  -0.0353  -0.0354  -0.0000  -0.0000

          k = 0.0000 0.0000-0.5000 (  1686 PWs)   bands (ev):

   -86.6549 -86.6075 -86.5986 -50.4467 -32.1777 -26.9841 -26.5722 -26.5721
     3.2202   4.7081   5.8040   6.7831   7.2738   7.2738   7.2743   7.2746

     occupation numbers 
     1.0000   1.0000   1.0000   1.0000   1.0000   1.0000   1.0000   1.0000
     1.0000   1.0000   1.0000   0.1718  -0.0000  -0.0000  -0.0000  -0.0000

          k = 0.0000 0.2500 0.2500 (  1708 PWs)   bands (ev):

   -86.6567 -86.6075 -86.5990 -50.4464 -32.1941 -26.9768 -26.5721 -26.5694
     2.8931   4.4356   5.4521   6.1411   7.0488   7.6211   8.2845   8.6467

     occupation numbers 
     1.0000   1.0000   1.0000   1.0000   1.0000   1.0000   1.0000   1.0000
     1.0000   1.0000   1.0000   1.0000  -0.0019  -0.0000  -0.0000  -0.0000

          k = 0.0000 0.2500-0.5000 (  1700 PWs)   bands (ev):

   -86.6556 -86.6078 -86.5986 -50.4461 -32.1877 -26.9835 -26.5715 -26.5688
     3.4801   3.5500   5.5731   6.1852   7.1367   7.4283   8.4933   8.9518

     occupation numbers 
     1.0000   1.0000   1.0000   1.0000   1.0000   1.0000   1.0000   1.0000
     1.0000   1.0000   1.0000   1.0000  -0.0001  -0.0000  -0.0000  -0.0000

          k = 0.0000-0.5000-0.5000 (  1692 PWs)   bands (ev):

   -86.6557 -86.6065 -86.5981 -50.4455 -32.1882 -26.9828 -26.5707 -26.5655
     2.7908   3.8046   5.0745   7.0035   7.6012   7.7325   8.1284   8.6715

     occupation numbers 
     1.0000   1.0000   1.0000   1.0000   1.0000   1.0000   1.0000   1.0000
     1.0000   1.0000   1.0000  -0.0068  -0.0000  -0.0000  -0.0000  -0.0000

          k = 0.2500 0.2500 0.2500 (  1713 PWs)   bands (ev):

   -86.6569 -86.6077 -86.5988 -50.4460 -32.1937 -26.9761 -26.5813 -26.5688
     3.0575   4.4746   4.8292   6.5055   7.0906   7.2568   8.3957   8.4785

     occupation numbers 
     1.0000   1.0000   1.0000   1.0000   1.0000   1.0000   1.0000   1.0000
     1.0000   1.0000   1.0000   1.0225  -0.0005  -0.0000  -0.0000  -0.0000

          k = 0.2500 0.2500-0.5000 (  1710 PWs)   bands (ev):

   -86.6563 -86.6075 -86.5985 -50.4456 -32.1895 -26.9828 -26.5807 -26.5682
     3.6401   3.8175   4.8148   6.5337   6.6238   8.0346   8.4767   8.4807

     occupation numbers 
     1.0000   1.0000   1.0000   1.0000   1.0000   1.0000   1.0000   1.0000
     1.0000   1.0000   1.0000   1.0316   0.9738  -0.0000  -0.0000  -0.0000

          k = 0.2500-0.5000-0.5000 (  1692 PWs)   bands (ev):

   -86.6558 -86.6066 -86.5984 -50.4451 -32.1778 -26.9821 -26.5800 -26.5772
     3.4200   4.2879   4.7126   6.3625   7.2370   7.6653   8.0129   8.6569

     occupation numbers 
     1.0000   1.0000   1.0000   1.0000   1.0000   1.0000   1.0000   1.0000
     1.0000   1.0000   1.0000   1.0005  -0.0000  -0.0000  -0.0000  -0.0000

          k =-0.5000-0.5000-0.5000 (  1736 PWs)   bands (ev):

   -86.6577 -86.6086 -86.5996 -50.4448 -32.1884 -26.9815 -26.5893 -26.5892
     4.4078   4.4080   5.3924   6.0518   6.0525   6.8415   7.2748   9.3001

     occupation numbers 
     1.0000   1.0000   1.0000   1.0000   1.0000   1.0000   1.0000   1.0000
     1.0000   1.0000   1.0000   1.0000   1.0000  -0.0034  -0.0000  -0.0000

          k = 0.2500 0.0000 0.0000 (  1707 PWs)   bands (ev):

   -86.6568 -86.6077 -86.5984 -50.4468 -32.1973 -26.9700 -26.5725 -26.5700
     2.5908   5.1597   5.3431   6.5776   6.5867   7.8609   8.0563   8.7518

     occupation numbers 
     1.0000   1.0000   1.0000   1.0000   1.0000   1.0000   1.0000   1.0000
     1.0000   1.0000   1.0000   1.0317   1.0266  -0.0000  -0.0000  -0.0000

          k = 0.0000 0.2500 0.0000 (  1707 PWs)   bands (ev):

   -86.6568 -86.6073 -86.5987 -50.4468 -32.1971 -26.9700 -26.5726 -26.5699
     2.5907   5.1606   5.3428   6.5775   6.5868   7.8606   8.0560   8.7521

     occupation numbers 
     1.0000   1.0000   1.0000   1.0000   1.0000   1.0000   1.0000   1.0000
     1.0000   1.0000   1.0000   1.0317   1.0266  -0.0000  -0.0000  -0.0000

          k =-0.5000 0.0000 0.0000 (  1686 PWs)   bands (ev):

   -86.6567 -86.6075 -86.5968 -50.4461 -32.1914 -26.9694 -26.5717 -26.5668
     2.0740   4.8599   5.8587   6.3069   6.5972   7.9466   8.2245   9.9343

     occupation numbers 
     1.0000   1.0000   1.0000   1.0000   1.0000   1.0000   1.0000   1.0000
     1.0000   1.0000   1.0000   1.0001   1.0174  -0.0000  -0.0000  -0.0000

          k = 0.0000-0.5000 0.0000 (  1686 PWs)   bands (ev):

   -86.6567 -86.6058 -86.5985 -50.4461 -32.1906 -26.9694 -26.5719 -26.5667
     2.0741   4.8598   5.8598   6.3070   6.5972   7.9465   8.2246   9.9343

     occupation numbers 
     1.0000   1.0000   1.0000   1.0000   1.0000   1.0000   1.0000   1.0000
     1.0000   1.0000   1.0000   1.0001   1.0174  -0.0000  -0.0000  -0.0000

          k = 0.2500 0.0000-0.2500 (  1708 PWs)   bands (ev):

   -86.6567 -86.6080 -86.5986 -50.4464 -32.1944 -26.9768 -26.5719 -26.5695
     2.8931   4.4354   5.4523   6.1409   7.0486   7.6213   8.2843   8.6463

     occupation numbers 
     1.0000   1.0000   1.0000   1.0000   1.0000   1.0000   1.0000   1.0000
     1.0000   1.0000   1.0000   1.0000  -0.0019  -0.0000  -0.0000  -0.0000

          k = 0.2500-0.2500 0.0000 (  1708 PWs)   bands (ev):

   -86.6572 -86.6075 -86.5986 -50.4463 -32.1947 -26.9694 -26.5819 -26.5693
     2.7587   4.2268   5.8693   6.6821   6.7520   7.4879   8.2900   8.7866

     occupation numbers 
     1.0000   1.0000   1.0000   1.0000   1.0000   1.0000   1.0000   1.0000
     1.0000   1.0000   1.0000   0.7517   0.3348  -0.0000  -0.0000  -0.0000

          k = 0.2500 0.0000 0.5000 (  1700 PWs)   bands (ev):

   -86.6556 -86.6075 -86.5989 -50.4461 -32.1875 -26.9835 -26.5714 -26.5689
     3.4801   3.5500   5.5733   6.1848   7.1361   7.4286   8.4932   8.9509

     occupation numbers 
     1.0000   1.0000   1.0000   1.0000   1.0000   1.0000   1.0000   1.0000
     1.0000   1.0000   1.0000   1.0000  -0.0001  -0.0000  -0.0000  -0.0000

          k =-0.5000-0.2500 0.0000 (  1700 PWs)   bands (ev):

   -86.6567 -86.6078 -86.5975 -50.4458 -32.1883 -26.9687 -26.5811 -26.5786
     2.6900   4.1100   6.3974   6.6430   6.6960   7.5231   8.1490   9.0898

     occupation numbers 
     1.0000   1.0000   1.0000   1.0000   1.0000   1.0000   1.0000   1.0000
     1.0000   1.0000   1.0017   0.9206   0.6749  -0.0000  -0.0000  -0.0000

          k = 0.0000-0.5000 0.2500 (  1700 PWs)   bands (ev):

   -86.6570 -86.6064 -86.5985 -50.4458 -32.1943 -26.9761 -26.5713 -26.5662
     2.3964   4.4816   4.9638   6.8167   7.3257   7.7636   8.2216   8.9476

     occupation numbers 
     1.0000   1.0000   1.0000   1.0000   1.0000   1.0000   1.0000   1.0000
     1.0000   1.0000   1.0000   0.0491  -0.0000  -0.0000  -0.0000  -0.0000

          k = 0.2500-0.5000 0.0000 (  1700 PWs)   bands (ev):

   -86.6567 -86.6064 -86.5989 -50.4458 -32.1880 -26.9687 -26.5812 -26.5785
     2.6901   4.1100   6.3978   6.6429   6.6960   7.5233   8.1491   9.0897

     occupation numbers 
     1.0000   1.0000   1.0000   1.0000   1.0000   1.0000   1.0000   1.0000
     1.0000   1.0000   1.0018   0.9209   0.6748  -0.0000  -0.0000  -0.0000

          k =-0.5000 0.0000 0.2500 (  1700 PWs)   bands (ev):

   -86.6570 -86.6075 -86.5975 -50.4458 -32.1945 -26.9761 -26.5712 -26.5663
     2.3964   4.4814   4.9640   6.8165   7.3250   7.7637   8.2215   8.9479

     occupation numbers 
     1.0000   1.0000   1.0000   1.0000   1.0000   1.0000   1.0000   1.0000
     1.0000   1.0000   1.0000   0.0496  -0.0000  -0.0000  -0.0000  -0.0000

          k =-0.5000 0.0000 0.5000 (  1692 PWs)   bands (ev):

   -86.6557 -86.6070 -86.5976 -50.4455 -32.1881 -26.9828 -26.5706 -26.5657
     2.7907   3.8046   5.0747   7.0026   7.6013   7.7318   8.1283   8.6714

     occupation numbers 
     1.0000   1.0000   1.0000   1.0000   1.0000   1.0000   1.0000   1.0000
     1.0000   1.0000   1.0000  -0.0070  -0.0000  -0.0000  -0.0000  -0.0000

          k =-0.5000 0.5000 0.0000 (  1692 PWs)   bands (ev):

   -86.6562 -86.6065 -86.5976 -50.4454 -32.1758 -26.9681 -26.5904 -26.5903
     3.6634   3.6635   6.5503   6.5729   7.2068   7.2071   7.2149   8.5518

     occupation numbers 
     1.0000   1.0000   1.0000   1.0000   1.0000   1.0000   1.0000   1.0000
     1.0000   1.0000   1.0350   1.0334  -0.0000  -0.0000  -0.0000  -0.0000

          k =-0.5000-0.2500 0.2500 (  1710 PWs)   bands (ev):

   -86.6567 -86.6075 -86.5982 -50.4455 -32.1897 -26.9755 -26.5805 -26.5781
     3.0099   4.2723   5.1847   6.7932   7.1126   7.4393   8.1133   8.2063

     occupation numbers 
     1.0000   1.0000   1.0000   1.0000   1.0000   1.0000   1.0000   1.0000
     1.0000   1.0000   1.0000   0.1286  -0.0002  -0.0000  -0.0000  -0.0000

          k =-0.2500-0.5000 0.2500 (  1710 PWs)   bands (ev):

   -86.6567 -86.6071 -86.5986 -50.4455 -32.1897 -26.9755 -26.5806 -26.5780
     3.0100   4.2723   5.1846   6.7935   7.1128   7.4394   8.1130   8.2064

     occupation numbers 
     1.0000   1.0000   1.0000   1.0000   1.0000   1.0000   1.0000   1.0000
     1.0000   1.0000   1.0000   0.1273  -0.0002  -0.0000  -0.0000  -0.0000

          k =-0.5000 0.2500 0.5000 (  1692 PWs)   bands (ev):

   -86.6558 -86.6073 -86.5977 -50.4451 -32.1780 -26.9821 -26.5799 -26.5774
     3.4199   4.2880   4.7128   6.3620   7.2368   7.6656   8.0127   8.7339

     occupation numbers 
     1.0000   1.0000   1.0000   1.0000   1.0000   1.0000   1.0000   1.0000
     1.0000   1.0000   1.0000   1.0005  -0.0000  -0.0000  -0.0000  -0.0000

          k =-0.5000 0.5000 0.2500 (  1692 PWs)   bands (ev):

   -86.6565 -86.6066 -86.5977 -50.4450 -32.1718 -26.9748 -26.5898 -26.5897
     3.9586   3.9587   6.1174   6.7114   6.7119   6.9789   7.2379   7.3682

     occupation numbers 
     1.0000   1.0000   1.0000   1.0000   1.0000   1.0000   1.0000   1.0000
     1.0000   1.0000   1.0000   0.5831   0.5800  -0.0120  -0.0000  -0.0000

     the Fermi energy is     6.7248 ev

!    total energy              =    3526.02618320 Ry
     estimated scf accuracy    <          5.3E-09 Ry
     smearing contrib. (-TS)   =      -0.00046256 Ry
     internal energy E=F+TS    =    3526.02664576 Ry

     The total energy is F=E-TS. E is the sum of the following terms:
     one-electron contribution =    -183.42805674 Ry
     hartree contribution      =      82.37202322 Ry
     xc contribution           =     -35.67264350 Ry
     ewald contribution        =    3662.75532279 Ry

     convergence has been achieved in  23 iterations

     Forces acting on atoms (cartesian axes, Ry/au):

     atom    1 type  1   force =     0.00000000   -0.00043210    0.00000000
     atom    2 type  2   force = **************    0.00021605    0.00000000
     atom    3 type  2   force = **************    0.00021605    0.00000000
     The non-local contrib.  to forces
     atom    1 type  1   force =     0.00000000    0.00273255    0.00000000
     atom    2 type  2   force =     1.34845019    0.00383185   -0.00000000
     atom    3 type  2   force =    -1.34845019    0.00383185    0.00000000
     The ionic contribution  to forces
     atom    1 type  1   force =     0.00000000   -0.05814426   -0.00000000
     atom    2 type  2   force = **************    0.02907213   -0.00000000
     atom    3 type  2   force = **************    0.02907213   -0.00000000
     The local contribution  to forces
     atom    1 type  1   force =     0.00000000    0.05527280    0.00000000
     atom    2 type  2   force =     1.04952206   -0.03268561    0.00000000
     atom    3 type  2   force =    -1.04952206   -0.03268561    0.00000000
     The core correction contribution to forces
     atom    1 type  1   force =    -0.00000000   -0.00029170   -0.00000000
     atom    2 type  2   force =     0.00877568   -0.00000371   -0.00000000
     atom    3 type  2   force =    -0.00877568   -0.00000371   -0.00000000
     The Hubbard contrib.    to forces
     atom    1 type  1   force =     0.00000000    0.00000000    0.00000000
     atom    2 type  2   force =     0.00000000    0.00000000    0.00000000
     atom    3 type  2   force =     0.00000000    0.00000000    0.00000000
     The SCF correction term to forces
     atom    1 type  1   force =    -0.00000000   -0.00000167    0.00000000
     atom    2 type  2   force =     0.00000052    0.00000120    0.00000000
     atom    3 type  2   force =    -0.00000052    0.00000120    0.00000000

     Total force = ************     Total SCF correction =     0.000002

     BFGS Geometry Optimization
     Energy error            =      0.0E+00 Ry
     Gradient error          =      2.0E+05 Ry/Bohr

     number of scf cycles    =   1
     number of bfgs steps    =   0

     energy             new  =    3526.0261832040 Ry

     new trust radius        =       0.5000000000 bohr
     new conv_thr            =       0.0000000100 Ry


ATOMIC_POSITIONS (angstrom)
Ti            0.0000000000       -0.0000000006        0.0000000000
O             1.6804113945        1.9450000003        0.0000000000
O            -1.6804113945        1.9450000003        0.0000000000



     Writing config-only to output data dir ./tmp/tio2_relax.save/
     NEW-OLD atomic charge density approx. for the potential

     Check: negative core charge=   -0.000008

     total cpu time spent up to now is       30.8 secs

     Self-consistent Calculation

     iteration #  1     ecut=    40.00 Ry     beta= 0.70
     Davidson diagonalization with overlap

---- Real-time Memory Report at c_bands before calling an iterative solver
           202 MiB given to the printing process from OS
             0 MiB allocation reported by mallinfo(arena+hblkhd)
          4458 MiB available memory on the node where the printing process lives
------------------
     c_bands:  1 eigenvalues not converged
     c_bands:  3 eigenvalues not converged
     c_bands:  1 eigenvalues not converged
     c_bands:  1 eigenvalues not converged
     c_bands:  2 eigenvalues not converged
     c_bands:  2 eigenvalues not converged
     c_bands:  1 eigenvalues not converged
     c_bands:  4 eigenvalues not converged
     c_bands:  3 eigenvalues not converged
     c_bands:  1 eigenvalues not converged
     c_bands:  2 eigenvalues not converged
     c_bands:  2 eigenvalues not converged
     c_bands:  1 eigenvalues not converged
     c_bands:  2 eigenvalues not converged
     c_bands:  3 eigenvalues not converged
     c_bands:  3 eigenvalues not converged
     c_bands:  1 eigenvalues not converged
     c_bands:  1 eigenvalues not converged
     c_bands:  3 eigenvalues not converged
     c_bands:  5 eigenvalues not converged
     c_bands:  2 eigenvalues not converged
     c_bands:  1 eigenvalues not converged
     ethr =  1.00E-06,  avg # of iterations = 20.9

     total cpu time spent up to now is       36.2 secs

     total energy              =    -168.14619519 Ry
     estimated scf accuracy    <       9.50162583 Ry

     iteration #  2     ecut=    40.00 Ry     beta= 0.70
     Davidson diagonalization with overlap

---- Real-time Memory Report at c_bands before calling an iterative solver
           202 MiB given to the printing process from OS
             0 MiB allocation reported by mallinfo(arena+hblkhd)
          4457 MiB available memory on the node where the printing process lives
------------------
     ethr =  1.00E-02,  avg # of iterations =  5.5

     total cpu time spent up to now is       38.0 secs

     total energy              =    -166.39355343 Ry
     estimated scf accuracy    <      49.30782214 Ry

     iteration #  3     ecut=    40.00 Ry     beta= 0.70
     Davidson diagonalization with overlap

---- Real-time Memory Report at c_bands before calling an iterative solver
           202 MiB given to the printing process from OS
             0 MiB allocation reported by mallinfo(arena+hblkhd)
          4457 MiB available memory on the node where the printing process lives
------------------
     ethr =  1.00E-02,  avg # of iterations =  4.6

     total cpu time spent up to now is       39.7 secs

     total energy              =    -173.31544229 Ry
     estimated scf accuracy    <       2.24636977 Ry

     iteration #  4     ecut=    40.00 Ry     beta= 0.70
     Davidson diagonalization with overlap

---- Real-time Memory Report at c_bands before calling an iterative solver
           202 MiB given to the printing process from OS
             0 MiB allocation reported by mallinfo(arena+hblkhd)
          4457 MiB available memory on the node where the printing process lives
------------------
     ethr =  9.36E-03,  avg # of iterations =  2.1

     total cpu time spent up to now is       40.8 secs

     total energy              =    -173.52069518 Ry
     estimated scf accuracy    <       0.44163310 Ry

     iteration #  5     ecut=    40.00 Ry     beta= 0.70
     Davidson diagonalization with overlap

---- Real-time Memory Report at c_bands before calling an iterative solver
           202 MiB given to the printing process from OS
             0 MiB allocation reported by mallinfo(arena+hblkhd)
          4457 MiB available memory on the node where the printing process lives
------------------
     ethr =  1.84E-03,  avg # of iterations =  5.9

     total cpu time spent up to now is       42.2 secs

     total energy              =    -173.65987461 Ry
     estimated scf accuracy    <       0.02867825 Ry

     iteration #  6     ecut=    40.00 Ry     beta= 0.70
     Davidson diagonalization with overlap

---- Real-time Memory Report at c_bands before calling an iterative solver
           202 MiB given to the printing process from OS
             0 MiB allocation reported by mallinfo(arena+hblkhd)
          4457 MiB available memory on the node where the printing process lives
------------------
     ethr =  1.19E-04,  avg # of iterations =  8.8

     total cpu time spent up to now is       43.8 secs

     total energy              =    -173.67970294 Ry
     estimated scf accuracy    <       0.03538479 Ry

     iteration #  7     ecut=    40.00 Ry     beta= 0.70
     Davidson diagonalization with overlap

---- Real-time Memory Report at c_bands before calling an iterative solver
           202 MiB given to the printing process from OS
             0 MiB allocation reported by mallinfo(arena+hblkhd)
          4457 MiB available memory on the node where the printing process lives
------------------
     ethr =  1.19E-04,  avg # of iterations =  2.3

     total cpu time spent up to now is       45.0 secs

     total energy              =    -173.68305977 Ry
     estimated scf accuracy    <       0.00151872 Ry

     iteration #  8     ecut=    40.00 Ry     beta= 0.70
     Davidson diagonalization with overlap

---- Real-time Memory Report at c_bands before calling an iterative solver
           202 MiB given to the printing process from OS
             0 MiB allocation reported by mallinfo(arena+hblkhd)
          4457 MiB available memory on the node where the printing process lives
------------------
     c_bands:  2 eigenvalues not converged
     c_bands:  1 eigenvalues not converged
     c_bands:  1 eigenvalues not converged
     ethr =  6.33E-06,  avg # of iterations = 11.9

     total cpu time spent up to now is       46.9 secs

     total energy              =    -173.68889091 Ry
     estimated scf accuracy    <       0.00316629 Ry

     iteration #  9     ecut=    40.00 Ry     beta= 0.70
     Davidson diagonalization with overlap

---- Real-time Memory Report at c_bands before calling an iterative solver
           202 MiB given to the printing process from OS
             0 MiB allocation reported by mallinfo(arena+hblkhd)
          4457 MiB available memory on the node where the printing process lives
------------------
     ethr =  6.33E-06,  avg # of iterations =  2.2

     total cpu time spent up to now is       48.0 secs

     total energy              =    -173.68893582 Ry
     estimated scf accuracy    <       0.00053208 Ry

     iteration # 10     ecut=    40.00 Ry     beta= 0.70
     Davidson diagonalization with overlap

---- Real-time Memory Report at c_bands before calling an iterative solver
           202 MiB given to the printing process from OS
             0 MiB allocation reported by mallinfo(arena+hblkhd)
          4457 MiB available memory on the node where the printing process lives
------------------
     ethr =  2.22E-06,  avg # of iterations =  7.5

     total cpu time spent up to now is       49.6 secs

     total energy              =    -173.68982104 Ry
     estimated scf accuracy    <       0.00042287 Ry

     iteration # 11     ecut=    40.00 Ry     beta= 0.70
     Davidson diagonalization with overlap

---- Real-time Memory Report at c_bands before calling an iterative solver
           202 MiB given to the printing process from OS
             0 MiB allocation reported by mallinfo(arena+hblkhd)
          4457 MiB available memory on the node where the printing process lives
------------------
     ethr =  1.76E-06,  avg # of iterations =  1.3

     total cpu time spent up to now is       50.5 secs

     total energy              =    -173.68979548 Ry
     estimated scf accuracy    <       0.00014036 Ry

     iteration # 12     ecut=    40.00 Ry     beta= 0.70
     Davidson diagonalization with overlap

---- Real-time Memory Report at c_bands before calling an iterative solver
           202 MiB given to the printing process from OS
             0 MiB allocation reported by mallinfo(arena+hblkhd)
          4457 MiB available memory on the node where the printing process lives
------------------
     ethr =  5.85E-07,  avg # of iterations =  5.9

     total cpu time spent up to now is       51.7 secs

     total energy              =    -173.68984482 Ry
     estimated scf accuracy    <       0.00005370 Ry

     iteration # 13     ecut=    40.00 Ry     beta= 0.70
     Davidson diagonalization with overlap

---- Real-time Memory Report at c_bands before calling an iterative solver
           202 MiB given to the printing process from OS
             0 MiB allocation reported by mallinfo(arena+hblkhd)
          4457 MiB available memory on the node where the printing process lives
------------------
     ethr =  2.24E-07,  avg # of iterations =  1.6

     total cpu time spent up to now is       52.7 secs

     total energy              =    -173.68983915 Ry
     estimated scf accuracy    <       0.00004292 Ry

     iteration # 14     ecut=    40.00 Ry     beta= 0.70
     Davidson diagonalization with overlap

---- Real-time Memory Report at c_bands before calling an iterative solver
           202 MiB given to the printing process from OS
             0 MiB allocation reported by mallinfo(arena+hblkhd)
          4457 MiB available memory on the node where the printing process lives
------------------
     ethr =  1.79E-07,  avg # of iterations =  1.7

     total cpu time spent up to now is       53.8 secs

     total energy              =    -173.68983710 Ry
     estimated scf accuracy    <       0.00001172 Ry

     iteration # 15     ecut=    40.00 Ry     beta= 0.70
     Davidson diagonalization with overlap

---- Real-time Memory Report at c_bands before calling an iterative solver
           202 MiB given to the printing process from OS
             0 MiB allocation reported by mallinfo(arena+hblkhd)
          4457 MiB available memory on the node where the printing process lives
------------------
     ethr =  4.89E-08,  avg # of iterations =  6.1

     total cpu time spent up to now is       55.1 secs

     total energy              =    -173.68984041 Ry
     estimated scf accuracy    <       0.00000847 Ry

     iteration # 16     ecut=    40.00 Ry     beta= 0.70
     Davidson diagonalization with overlap

---- Real-time Memory Report at c_bands before calling an iterative solver
           202 MiB given to the printing process from OS
             0 MiB allocation reported by mallinfo(arena+hblkhd)
          4457 MiB available memory on the node where the printing process lives
------------------
     ethr =  3.53E-08,  avg # of iterations =  2.0

     total cpu time spent up to now is       56.2 secs

     total energy              =    -173.68984104 Ry
     estimated scf accuracy    <       0.00000077 Ry

     iteration # 17     ecut=    40.00 Ry     beta= 0.70
     Davidson diagonalization with overlap

---- Real-time Memory Report at c_bands before calling an iterative solver
           202 MiB given to the printing process from OS
             0 MiB allocation reported by mallinfo(arena+hblkhd)
          4457 MiB available memory on the node where the printing process lives
------------------
     c_bands:  1 eigenvalues not converged
     ethr =  3.21E-09,  avg # of iterations =  8.0

     total cpu time spent up to now is       57.6 secs

     total energy              =    -173.68982412 Ry
     estimated scf accuracy    <       0.00000071 Ry

     iteration # 18     ecut=    40.00 Ry     beta= 0.70
     Davidson diagonalization with overlap

---- Real-time Memory Report at c_bands before calling an iterative solver
           202 MiB given to the printing process from OS
             0 MiB allocation reported by mallinfo(arena+hblkhd)
          4457 MiB available memory on the node where the printing process lives
------------------
     ethr =  2.98E-09,  avg # of iterations =  1.6

     total cpu time spent up to now is       58.5 secs

     total energy              =    -173.68982414 Ry
     estimated scf accuracy    <       0.00000078 Ry

     iteration # 19     ecut=    40.00 Ry     beta= 0.70
     Davidson diagonalization with overlap

---- Real-time Memory Report at c_bands before calling an iterative solver
           202 MiB given to the printing process from OS
             0 MiB allocation reported by mallinfo(arena+hblkhd)
          4457 MiB available memory on the node where the printing process lives
------------------
     ethr =  2.98E-09,  avg # of iterations =  1.0

     total cpu time spent up to now is       59.5 secs

     total energy              =    -173.68982412 Ry
     estimated scf accuracy    <       0.00000039 Ry

     iteration # 20     ecut=    40.00 Ry     beta= 0.70
     Davidson diagonalization with overlap

---- Real-time Memory Report at c_bands before calling an iterative solver
           202 MiB given to the printing process from OS
             0 MiB allocation reported by mallinfo(arena+hblkhd)
          4457 MiB available memory on the node where the printing process lives
------------------
     ethr =  1.62E-09,  avg # of iterations =  1.7

     total cpu time spent up to now is       60.6 secs

     total energy              =    -173.68982413 Ry
     estimated scf accuracy    <       0.00000017 Ry

     iteration # 21     ecut=    40.00 Ry     beta= 0.70
     Davidson diagonalization with overlap

---- Real-time Memory Report at c_bands before calling an iterative solver
           202 MiB given to the printing process from OS
             0 MiB allocation reported by mallinfo(arena+hblkhd)
          4457 MiB available memory on the node where the printing process lives
------------------
     ethr =  7.14E-10,  avg # of iterations =  2.1

     total cpu time spent up to now is       61.6 secs

     total energy              =    -173.68982412 Ry
     estimated scf accuracy    <       0.00000012 Ry

     iteration # 22     ecut=    40.00 Ry     beta= 0.70
     Davidson diagonalization with overlap

---- Real-time Memory Report at c_bands before calling an iterative solver
           202 MiB given to the printing process from OS
             0 MiB allocation reported by mallinfo(arena+hblkhd)
          4456 MiB available memory on the node where the printing process lives
------------------
     ethr =  4.81E-10,  avg # of iterations =  3.9

     total cpu time spent up to now is       62.7 secs

     total energy              =    -173.68982412 Ry
     estimated scf accuracy    <       0.00000002 Ry

     iteration # 23     ecut=    40.00 Ry     beta= 0.70
     Davidson diagonalization with overlap

---- Real-time Memory Report at c_bands before calling an iterative solver
           202 MiB given to the printing process from OS
             0 MiB allocation reported by mallinfo(arena+hblkhd)
          4456 MiB available memory on the node where the printing process lives
------------------
     c_bands:  1 eigenvalues not converged
     ethr =  1.00E-10,  avg # of iterations =  6.6

     total cpu time spent up to now is       63.9 secs

     End of self-consistent calculation

          k = 0.0000 0.0000 0.0000 (  1743 PWs)   bands (ev):

   -50.8429 -48.9586 -28.8311 -28.6700 -27.2296 -27.1586 -26.9869 -16.3512
   -11.9633   3.6812   5.4940   5.5222   6.7171   7.0968   7.2958   9.3752

     occupation numbers 
     1.0000   1.0000   1.0000   1.0000   1.0000   1.0000   1.0000   1.0000
     1.0000   1.0000   1.0000   1.0000  -0.0160  -0.0000  -0.0000  -0.0000

          k = 0.0000 0.0000 0.2500 (  1707 PWs)   bands (ev):

   -50.8424 -48.9579 -28.8268 -28.6637 -27.2366 -27.1577 -26.9863 -16.3131
   -11.9336   4.0514   5.5201   5.5833   6.7375   6.7870   7.0447   8.9355

     occupation numbers 
     1.0000   1.0000   1.0000   1.0000   1.0000   1.0000   1.0000   1.0000
     1.0000   1.0000   1.0000   1.0000  -0.0106  -0.0030  -0.0000  -0.0000

          k = 0.0000 0.0000-0.5000 (  1686 PWs)   bands (ev):

   -50.8421 -48.9571 -28.8213 -28.6576 -27.2435 -27.1568 -26.9856 -16.2855
   -11.9047   4.6540   5.4395   5.5399   6.5225   6.5676   6.8323   8.2778

     occupation numbers 
     1.0000   1.0000   1.0000   1.0000   1.0000   1.0000   1.0000   1.0000
     1.0000   1.0000   1.0000   1.0000   0.2366   0.0544  -0.0007  -0.0000

          k = 0.0000 0.2500 0.2500 (  1708 PWs)   bands (ev):

   -50.8416 -48.9582 -28.8260 -28.6512 -27.2368 -27.1883 -26.9826 -16.3361
   -11.8606   4.1857   5.6726   6.0440   6.7492   6.9127   7.0249   8.9442

     occupation numbers 
     1.0000   1.0000   1.0000   1.0000   1.0000   1.0000   1.0000   1.0000
     1.0000   1.0000   1.0000   1.0000  -0.0081  -0.0000  -0.0000  -0.0000

          k = 0.0000 0.2500-0.5000 (  1700 PWs)   bands (ev):

   -50.8413 -48.9580 -28.8295 -28.6530 -27.2437 -27.1877 -26.9820 -16.3115
   -11.8332   4.8699   5.2699   6.0758   6.7897   6.8084   6.9231   8.3572

     occupation numbers 
     1.0000   1.0000   1.0000   1.0000   1.0000   1.0000   1.0000   1.0000
     1.0000   1.0000   1.0000   1.0001  -0.0028  -0.0016  -0.0000  -0.0000

          k = 0.0000-0.5000-0.5000 (  1692 PWs)   bands (ev):

   -50.8404 -48.9580 -28.8285 -28.6394 -27.2440 -27.2185 -26.9782 -16.3144
   -11.7602   5.0203   5.1031   6.9038   7.2157   7.2864   7.5467   7.9119

     occupation numbers 
     1.0000   1.0000   1.0000   1.0000   1.0000   1.0000   1.0000   1.0000
     1.0000   1.0000   1.0000  -0.0000  -0.0000  -0.0000  -0.0000  -0.0000

          k = 0.2500 0.2500 0.2500 (  1713 PWs)   bands (ev):

   -50.8410 -48.9583 -28.8267 -28.6544 -27.2367 -27.1985 -26.9789 -16.3735
   -11.7639   4.6450   5.8853   6.1532   6.6030   6.7145   7.0004   8.6541

     occupation numbers 
     1.0000   1.0000   1.0000   1.0000   1.0000   1.0000   1.0000   1.0000
     1.0000   1.0000   1.0000   1.0019  -0.0150  -0.0168  -0.0000  -0.0000

          k = 0.2500 0.2500-0.5000 (  1710 PWs)   bands (ev):

   -50.8406 -48.9581 -28.8288 -28.6555 -27.2436 -27.1980 -26.9784 -16.3678
   -11.7392   5.0025   5.8737   6.0446   6.2733   6.7527   7.5224   8.3502

     occupation numbers 
     1.0000   1.0000   1.0000   1.0000   1.0000   1.0000   1.0000   1.0000
     1.0000   1.0000   1.0000   1.0000   1.0276  -0.0074  -0.0000  -0.0000

          k = 0.2500-0.5000-0.5000 (  1692 PWs)   bands (ev):

   -50.8399 -48.9578 -28.8246 -28.6543 -27.2433 -27.2202 -26.9643 -16.3512
   -11.7107   5.0568   5.5102   6.2078   6.9328   7.2754   8.3471   8.3692

     occupation numbers 
     1.0000   1.0000   1.0000   1.0000   1.0000   1.0000   1.0000   1.0000
     1.0000   1.0000   1.0000   1.0084  -0.0000  -0.0000  -0.0000  -0.0000

          k =-0.5000-0.5000-0.5000 (  1736 PWs)   bands (ev):

   -50.8395 -48.9578 -28.8305 -28.6785 -27.2427 -27.2220 -26.9509 -16.3910
   -11.6623   5.0031   5.7883   5.9105   7.2903   7.7667   7.8756   8.4179

     occupation numbers 
     1.0000   1.0000   1.0000   1.0000   1.0000   1.0000   1.0000   1.0000
     1.0000   1.0000   1.0000   1.0000  -0.0000  -0.0000  -0.0000  -0.0000

          k = 0.2500 0.0000 0.0000 (  1707 PWs)   bands (ev):

   -50.8420 -48.9588 -28.8254 -28.6509 -27.2300 -27.1759 -26.9945 -16.3685
   -11.8189   4.1331   5.6836   5.8599   6.7244   7.0351   7.3462   8.4493

     occupation numbers 
     1.0000   1.0000   1.0000   1.0000   1.0000   1.0000   1.0000   1.0000
     1.0000   1.0000   1.0000   1.0000  -0.0139  -0.0000  -0.0000  -0.0000

          k = 0.0000 0.2500 0.0000 (  1707 PWs)   bands (ev):

   -50.8419 -48.9584 -28.8238 -28.6514 -27.2299 -27.1888 -26.9831 -16.3331
   -11.8871   3.7539   5.8465   6.0154   6.8218   7.0164   7.3026   9.0246

     occupation numbers 
     1.0000   1.0000   1.0000   1.0000   1.0000   1.0000   1.0000   1.0000
     1.0000   1.0000   1.0000   1.0000  -0.0010  -0.0000  -0.0000  -0.0000

          k =-0.5000 0.0000 0.0000 (  1686 PWs)   bands (ev):

   -50.8411 -48.9589 -28.8240 -28.6354 -27.2303 -27.1939 -27.0021 -16.3676
   -11.6769   4.6639   6.2717   6.4645   6.5609   6.9879   7.6716   7.9907

     occupation numbers 
     1.0000   1.0000   1.0000   1.0000   1.0000   1.0000   1.0000   1.0000
     1.0000   1.0000   1.0271   0.5812   0.0746  -0.0000  -0.0000  -0.0000

          k = 0.0000-0.5000 0.0000 (  1686 PWs)   bands (ev):

   -50.8411 -48.9581 -28.8166 -28.6306 -27.2302 -27.2198 -26.9794 -16.3259
   -11.8111   3.7760   6.3713   6.7815   7.2155   7.2524   7.6070   7.7496

     occupation numbers 
     1.0000   1.0000   1.0000   1.0000   1.0000   1.0000   1.0000   1.0000
     1.0000   1.0000   0.9852  -0.0035  -0.0000  -0.0000  -0.0000  -0.0000

          k = 0.2500 0.0000-0.2500 (  1708 PWs)   bands (ev):

   -50.8416 -48.9582 -28.8251 -28.6501 -27.2369 -27.1754 -26.9939 -16.3637
   -11.7928   4.4621   5.8051   5.8935   6.5713   6.7620   7.1132   8.2328

     occupation numbers 
     1.0000   1.0000   1.0000   1.0000   1.0000   1.0000   1.0000   1.0000
     1.0000   1.0000   1.0000   1.0000   0.0442  -0.0059  -0.0000  -0.0000

          k = 0.2500-0.2500 0.0000 (  1708 PWs)   bands (ev):

   -50.8413 -48.9584 -28.8242 -28.6524 -27.2298 -27.1991 -26.9795 -16.3595
   -11.7884   4.2837   6.0002   6.1776   6.7131   6.7517   7.2088   8.2139

     occupation numbers 
     1.0000   1.0000   1.0000   1.0000   1.0000   1.0000   1.0000   1.0000
     1.0000   1.0000   1.0000   1.0039  -0.0172  -0.0076  -0.0000  -0.0000

          k = 0.2500 0.0000 0.5000 (  1700 PWs)   bands (ev):

   -50.8413 -48.9577 -28.8249 -28.6450 -27.2438 -27.1747 -26.9933 -16.3709
   -11.7663   4.8713   5.9267   6.0466   6.1867   6.4989   6.9243   8.2950

     occupation numbers 
     1.0000   1.0000   1.0000   1.0000   1.0000   1.0000   1.0000   1.0000
     1.0000   1.0000   1.0000   1.0000   1.0050   0.3694  -0.0000  -0.0000

          k =-0.5000-0.2500 0.0000 (  1700 PWs)   bands (ev):

   -50.8406 -48.9585 -28.8228 -28.6554 -27.2296 -27.2086 -26.9767 -16.3950
   -11.6904   5.0434   6.1917   6.4204   6.5798   6.9225   7.0070   7.0434

     occupation numbers 
     1.0000   1.0000   1.0000   1.0000   1.0000   1.0000   1.0000   1.0000
     1.0000   1.0000   1.0057   0.8232   0.0235  -0.0000  -0.0000  -0.0000

          k = 0.0000-0.5000 0.2500 (  1700 PWs)   bands (ev):

   -50.8408 -48.9585 -28.8270 -28.6396 -27.2372 -27.2192 -26.9788 -16.3318
   -11.7862   4.2855   5.6331   6.5766   7.2465   7.3659   7.6072   7.8602

     occupation numbers 
     1.0000   1.0000   1.0000   1.0000   1.0000   1.0000   1.0000   1.0000
     1.0000   1.0000   1.0000   0.0308  -0.0000  -0.0000  -0.0000  -0.0000

          k = 0.2500-0.5000 0.0000 (  1700 PWs)   bands (ev):

   -50.8406 -48.9582 -28.8186 -28.6540 -27.2296 -27.2216 -26.9654 -16.3625
   -11.7570   4.3659   6.4082   6.4496   6.7743   7.1649   7.2798   7.4136

     occupation numbers 
     1.0000   1.0000   1.0000   1.0000   1.0000   1.0000   1.0000   1.0000
     1.0000   1.0000   0.8755   0.6703  -0.0043  -0.0000  -0.0000  -0.0000

          k =-0.5000 0.0000 0.2500 (  1700 PWs)   bands (ev):

   -50.8408 -48.9586 -28.8253 -28.6344 -27.2373 -27.1933 -27.0015 -16.4218
   -11.6542   5.0384   5.6457   6.4392   6.6182   7.1758   7.7134   7.7857

     occupation numbers 
     1.0000   1.0000   1.0000   1.0000   1.0000   1.0000   1.0000   1.0000
     1.0000   1.0000   1.0000   0.7287  -0.0283  -0.0000  -0.0000  -0.0000

          k =-0.5000 0.0000 0.5000 (  1692 PWs)   bands (ev):

   -50.8405 -48.9579 -28.8237 -28.6292 -27.2441 -27.1927 -27.0008 -16.4165
   -11.6304   5.2876   5.6674   6.0331   6.6791   7.0207   7.8173   8.5514

     occupation numbers 
     1.0000   1.0000   1.0000   1.0000   1.0000   1.0000   1.0000   1.0000
     1.0000   1.0000   1.0000   1.0000  -0.0285  -0.0000  -0.0000  -0.0000

          k =-0.5000 0.5000 0.0000 (  1692 PWs)   bands (ev):

   -50.8402 -48.9578 -28.8175 -28.6721 -27.2289 -27.2232 -26.9516 -16.3626
   -11.7028   5.3755   6.1982   6.2742   6.3954   7.0269   7.1418   7.6061

     occupation numbers 
     1.0000   1.0000   1.0000   1.0000   1.0000   1.0000   1.0000   1.0000
     1.0000   1.0000   1.0067   1.0279   0.9217  -0.0000  -0.0000  -0.0000

          k =-0.5000-0.2500 0.2500 (  1710 PWs)   bands (ev):

   -50.8403 -48.9581 -28.8242 -28.6544 -27.2365 -27.2080 -26.9761 -16.4007
   -11.6686   5.2499   5.8244   6.1276   6.8216   6.9066   7.1985   7.7130

     occupation numbers 
     1.0000   1.0000   1.0000   1.0000   1.0000   1.0000   1.0000   1.0000
     1.0000   1.0000   1.0000   1.0008  -0.0010  -0.0000  -0.0000  -0.0000

          k =-0.2500-0.5000 0.2500 (  1710 PWs)   bands (ev):

   -50.8403 -48.9584 -28.8275 -28.6580 -27.2365 -27.2209 -26.9649 -16.3638
   -11.7341   4.8354   5.5362   6.4653   7.0037   7.0805   7.2111   8.4321

     occupation numbers 
     1.0000   1.0000   1.0000   1.0000   1.0000   1.0000   1.0000   1.0000
     1.0000   1.0000   1.0000   0.5762  -0.0000  -0.0000  -0.0000  -0.0000

          k =-0.5000 0.2500 0.5000 (  1692 PWs)   bands (ev):

   -50.8399 -48.9577 -28.8237 -28.6536 -27.2433 -27.2073 -26.9753 -16.3690
   -11.6457   5.2643   5.5634   6.0615   6.8905   7.2411   7.8698   8.3223

     occupation numbers 
     1.0000   1.0000   1.0000   1.0000   1.0000   1.0000   1.0000   1.0000
     1.0000   1.0000   1.0000   1.0001  -0.0001  -0.0000  -0.0000  -0.0000

          k =-0.5000 0.5000 0.2500 (  1692 PWs)   bands (ev):

   -50.8398 -48.9576 -28.8233 -28.6719 -27.2358 -27.2225 -26.9511 -16.3419
   -11.6821   5.4416   5.6386   6.0597   6.9159   7.2134   7.4458   7.7665

     occupation numbers 
     1.0000   1.0000   1.0000   1.0000   1.0000   1.0000   1.0000   1.0000
     1.0000   1.0000   1.0000   1.0001  -0.0000  -0.0000  -0.0000  -0.0000

     the Fermi energy is     6.4776 ev

!    total energy              =    -173.68982413 Ry
     estimated scf accuracy    <          1.9E-09 Ry
     smearing contrib. (-TS)   =       0.00003376 Ry
     internal energy E=F+TS    =    -173.68985789 Ry

     The total energy is F=E-TS. E is the sum of the following terms:
     one-electron contribution =    -157.04172733 Ry
     hartree contribution      =      80.11582053 Ry
     xc contribution           =     -34.97636956 Ry
     ewald contribution        =     -61.78758153 Ry

     convergence has been achieved in  23 iterations

     Forces acting on atoms (cartesian axes, Ry/au):

     atom    1 type  1   force =     0.00000000   -0.00035549    0.00000000
     atom    2 type  2   force =   -37.43999007    0.00017774    0.00000000
     atom    3 type  2   force =    37.43999007    0.00017774    0.00000000
     The non-local contrib.  to forces
     atom    1 type  1   force =     0.00000000    0.00368770    0.00000000
     atom    2 type  2   force =     3.02430314   -0.00140796   -0.00000000
     atom    3 type  2   force =    -3.02430314   -0.00140796    0.00000000
     The ionic contribution  to forces
     atom    1 type  1   force =    -0.00000000   -0.06342153   -0.00000000
     atom    2 type  2   force =   -67.00428327    0.03171077   -0.00000000
     atom    3 type  2   force =    67.00428327    0.03171077   -0.00000000
     The local contribution  to forces
     atom    1 type  1   force =     0.00000000    0.05940163    0.00000000
     atom    2 type  2   force =    26.43816593   -0.03013483    0.00000000
     atom    3 type  2   force =   -26.43816593   -0.03013483    0.00000000
     The core correction contribution to forces
     atom    1 type  1   force =    -0.00000000   -0.00002119   -0.00000000
     atom    2 type  2   force =     0.10186095    0.00000882    0.00000000
     atom    3 type  2   force =    -0.10186095    0.00000882    0.00000000
     The Hubbard contrib.    to forces
     atom    1 type  1   force =     0.00000000    0.00000000    0.00000000
     atom    2 type  2   force =     0.00000000    0.00000000    0.00000000
     atom    3 type  2   force =     0.00000000    0.00000000    0.00000000
     The SCF correction term to forces
     atom    1 type  1   force =    -0.00000000   -0.00000222   -0.00000000
     atom    2 type  2   force =    -0.00003681    0.00000082   -0.00000000
     atom    3 type  2   force =     0.00003681    0.00000082   -0.00000000

     Total force =    52.948142     Total SCF correction =     0.000052
     Energy error            =      3.7E+03 Ry
     Gradient error          =      3.7E+01 Ry/Bohr

     number of scf cycles    =   2
     number of bfgs steps    =   1

     energy             old  =    3526.0261832040 Ry
     energy             new  =    -173.6898241323 Ry

     CASE: energy            _new < energy            _old

     new trust radius        =       0.0003554715 bohr
     new conv_thr            =       0.0000000100 Ry


ATOMIC_POSITIONS (angstrom)
Ti            0.0000000000       -0.0001881080        0.0000000000
O             1.6803618970        1.9450940540        0.0000000000
O            -1.6803618970        1.9450940540        0.0000000000



     Writing config-only to output data dir ./tmp/tio2_relax.save/
     NEW-OLD atomic charge density approx. for the potential

     Check: negative core charge=   -0.000008

     total cpu time spent up to now is       64.4 secs

     Self-consistent Calculation

     iteration #  1     ecut=    40.00 Ry     beta= 0.70
     Davidson diagonalization with overlap

---- Real-time Memory Report at c_bands before calling an iterative solver
           202 MiB given to the printing process from OS
             0 MiB allocation reported by mallinfo(arena+hblkhd)
          4456 MiB available memory on the node where the printing process lives
------------------
     ethr =  1.00E-06,  avg # of iterations =  2.1

     Threshold (ethr) on eigenvalues was too large:
     Diagonalizing with lowered threshold

     Davidson diagonalization with overlap

---- Real-time Memory Report at c_bands before calling an iterative solver
           202 MiB given to the printing process from OS
             0 MiB allocation reported by mallinfo(arena+hblkhd)
          4456 MiB available memory on the node where the printing process lives
------------------
     ethr =  5.27E-10,  avg # of iterations =  5.7

     total cpu time spent up to now is       67.4 secs

     total energy              =    -173.69682598 Ry
     estimated scf accuracy    <       0.00000024 Ry

     iteration #  2     ecut=    40.00 Ry     beta= 0.70
     Davidson diagonalization with overlap

---- Real-time Memory Report at c_bands before calling an iterative solver
           202 MiB given to the printing process from OS
             0 MiB allocation reported by mallinfo(arena+hblkhd)
          4456 MiB available memory on the node where the printing process lives
------------------
     ethr =  9.89E-10,  avg # of iterations =  5.7

     total cpu time spent up to now is       69.0 secs

     total energy              =    -173.69682589 Ry
     estimated scf accuracy    <       0.00000066 Ry

     iteration #  3     ecut=    40.00 Ry     beta= 0.70
     Davidson diagonalization with overlap

---- Real-time Memory Report at c_bands before calling an iterative solver
           202 MiB given to the printing process from OS
             0 MiB allocation reported by mallinfo(arena+hblkhd)
          4456 MiB available memory on the node where the printing process lives
------------------
     ethr =  9.89E-10,  avg # of iterations =  6.4

     total cpu time spent up to now is       70.2 secs

     total energy              =    -173.69682601 Ry
     estimated scf accuracy    <       0.00000026 Ry

     iteration #  4     ecut=    40.00 Ry     beta= 0.70
     Davidson diagonalization with overlap

---- Real-time Memory Report at c_bands before calling an iterative solver
           202 MiB given to the printing process from OS
             0 MiB allocation reported by mallinfo(arena+hblkhd)
          4456 MiB available memory on the node where the printing process lives
------------------
     ethr =  9.89E-10,  avg # of iterations =  2.1

     total cpu time spent up to now is       71.3 secs

     total energy              =    -173.69682603 Ry
     estimated scf accuracy    <       0.00000002 Ry

     iteration #  5     ecut=    40.00 Ry     beta= 0.70
     Davidson diagonalization with overlap

---- Real-time Memory Report at c_bands before calling an iterative solver
           202 MiB given to the printing process from OS
             0 MiB allocation reported by mallinfo(arena+hblkhd)
          4456 MiB available memory on the node where the printing process lives
------------------
     ethr =  1.01E-10,  avg # of iterations =  7.3

     total cpu time spent up to now is       72.6 secs

     End of self-consistent calculation

          k = 0.0000 0.0000 0.0000 (  1743 PWs)   bands (ev):

   -50.8431 -48.9585 -28.8238 -28.6627 -27.2298 -27.1587 -26.9872 -16.3474
   -11.9631   3.6812   5.4935   5.5221   6.7171   7.0964   7.2956   9.3740

     occupation numbers 
     1.0000   1.0000   1.0000   1.0000   1.0000   1.0000   1.0000   1.0000
     1.0000   1.0000   1.0000   1.0000  -0.0159  -0.0000  -0.0000  -0.0000

          k = 0.0000 0.0000 0.2500 (  1707 PWs)   bands (ev):

   -50.8427 -48.9577 -28.8194 -28.6565 -27.2368 -27.1578 -26.9865 -16.3093
   -11.9335   4.0515   5.5195   5.5832   6.7375   6.7865   7.0445   8.9358

     occupation numbers 
     1.0000   1.0000   1.0000   1.0000   1.0000   1.0000   1.0000   1.0000
     1.0000   1.0000   1.0000   1.0000  -0.0105  -0.0030  -0.0000  -0.0000

          k = 0.0000 0.0000-0.5000 (  1686 PWs)   bands (ev):

   -50.8423 -48.9569 -28.8139 -28.6504 -27.2437 -27.1569 -26.9858 -16.2819
   -11.9046   4.6543   5.4394   5.5394   6.5221   6.5676   6.8321   8.2777

     occupation numbers 
     1.0000   1.0000   1.0000   1.0000   1.0000   1.0000   1.0000   1.0000
     1.0000   1.0000   1.0000   1.0000   0.2376   0.0535  -0.0007  -0.0000

          k = 0.0000 0.2500 0.2500 (  1708 PWs)   bands (ev):

   -50.8419 -48.9581 -28.8186 -28.6439 -27.2370 -27.1885 -26.9828 -16.3323
   -11.8605   4.1858   5.6726   6.0436   6.7490   6.9127   7.0245   8.9430

     occupation numbers 
     1.0000   1.0000   1.0000   1.0000   1.0000   1.0000   1.0000   1.0000
     1.0000   1.0000   1.0000   1.0000  -0.0081  -0.0000  -0.0000  -0.0000

          k = 0.0000 0.2500-0.5000 (  1700 PWs)   bands (ev):

   -50.8415 -48.9579 -28.8222 -28.6457 -27.2439 -27.1879 -26.9822 -16.3077
   -11.8331   4.8701   5.2701   6.0753   6.7893   6.8083   6.9230   8.3571

     occupation numbers 
     1.0000   1.0000   1.0000   1.0000   1.0000   1.0000   1.0000   1.0000
     1.0000   1.0000   1.0000   1.0001  -0.0028  -0.0016  -0.0000  -0.0000

          k = 0.0000-0.5000-0.5000 (  1692 PWs)   bands (ev):

   -50.8407 -48.9579 -28.8212 -28.6320 -27.2442 -27.2188 -26.9785 -16.3107
   -11.7601   5.0206   5.1032   6.9038   7.2155   7.2864   7.5465   7.9092

     occupation numbers 
     1.0000   1.0000   1.0000   1.0000   1.0000   1.0000   1.0000   1.0000
     1.0000   1.0000   1.0000  -0.0000  -0.0000  -0.0000  -0.0000  -0.0000

          k = 0.2500 0.2500 0.2500 (  1713 PWs)   bands (ev):

   -50.8412 -48.9582 -28.8193 -28.6471 -27.2369 -27.1988 -26.9791 -16.3698
   -11.7637   4.6451   5.8852   6.1528   6.6028   6.7146   7.0003   8.6535

     occupation numbers 
     1.0000   1.0000   1.0000   1.0000   1.0000   1.0000   1.0000   1.0000
     1.0000   1.0000   1.0000   1.0019  -0.0150  -0.0167  -0.0000  -0.0000

          k = 0.2500 0.2500-0.5000 (  1710 PWs)   bands (ev):

   -50.8409 -48.9580 -28.8214 -28.6482 -27.2438 -27.1982 -26.9786 -16.3641
   -11.7390   5.0025   5.8736   6.0444   6.2730   6.7528   7.5221   8.3501

     occupation numbers 
     1.0000   1.0000   1.0000   1.0000   1.0000   1.0000   1.0000   1.0000
     1.0000   1.0000   1.0000   1.0000   1.0276  -0.0074  -0.0000  -0.0000

          k = 0.2500-0.5000-0.5000 (  1692 PWs)   bands (ev):

   -50.8402 -48.9577 -28.8173 -28.6470 -27.2435 -27.2205 -26.9644 -16.3475
   -11.7106   5.0566   5.5103   6.2078   6.9323   7.2754   8.3464   8.3691

     occupation numbers 
     1.0000   1.0000   1.0000   1.0000   1.0000   1.0000   1.0000   1.0000
     1.0000   1.0000   1.0000   1.0085  -0.0000  -0.0000  -0.0000  -0.0000

          k =-0.5000-0.5000-0.5000 (  1736 PWs)   bands (ev):

   -50.8398 -48.9577 -28.8232 -28.6713 -27.2429 -27.2223 -26.9509 -16.3873
   -11.6621   5.0027   5.7877   5.9104   7.2902   7.7665   7.8762   8.4176

     occupation numbers 
     1.0000   1.0000   1.0000   1.0000   1.0000   1.0000   1.0000   1.0000
     1.0000   1.0000   1.0000   1.0000  -0.0000  -0.0000  -0.0000  -0.0000

          k = 0.2500 0.0000 0.0000 (  1707 PWs)   bands (ev):

   -50.8422 -48.9586 -28.8181 -28.6436 -27.2302 -27.1761 -26.9947 -16.3648
   -11.8187   4.1332   5.6836   5.8595   6.7243   7.0348   7.3460   8.4484

     occupation numbers 
     1.0000   1.0000   1.0000   1.0000   1.0000   1.0000   1.0000   1.0000
     1.0000   1.0000   1.0000   1.0000  -0.0139  -0.0000  -0.0000  -0.0000

          k = 0.0000 0.2500 0.0000 (  1707 PWs)   bands (ev):

   -50.8422 -48.9583 -28.8164 -28.6441 -27.2301 -27.1890 -26.9834 -16.3293
   -11.8870   3.7540   5.8465   6.0149   6.8217   7.0162   7.3022   9.0247

     occupation numbers 
     1.0000   1.0000   1.0000   1.0000   1.0000   1.0000   1.0000   1.0000
     1.0000   1.0000   1.0000   1.0000  -0.0010  -0.0000  -0.0000  -0.0000

          k =-0.5000 0.0000 0.0000 (  1686 PWs)   bands (ev):

   -50.8413 -48.9587 -28.8166 -28.6280 -27.2305 -27.1941 -27.0023 -16.3641
   -11.6768   4.6642   6.2718   6.4644   6.5609   6.9879   7.6687   7.9905

     occupation numbers 
     1.0000   1.0000   1.0000   1.0000   1.0000   1.0000   1.0000   1.0000
     1.0000   1.0000   1.0272   0.5803   0.0737  -0.0000  -0.0000  -0.0000

          k = 0.0000-0.5000 0.0000 (  1686 PWs)   bands (ev):

   -50.8413 -48.9580 -28.8092 -28.6232 -27.2304 -27.2201 -26.9796 -16.3223
   -11.8110   3.7762   6.3712   6.7813   7.2155   7.2526   7.6068   7.7484

     occupation numbers 
     1.0000   1.0000   1.0000   1.0000   1.0000   1.0000   1.0000   1.0000
     1.0000   1.0000   0.9849  -0.0035  -0.0000  -0.0000  -0.0000  -0.0000

          k = 0.2500 0.0000-0.2500 (  1708 PWs)   bands (ev):

   -50.8419 -48.9581 -28.8177 -28.6428 -27.2371 -27.1756 -26.9941 -16.3600
   -11.7927   4.4622   5.8051   5.8930   6.5710   6.7621   7.1130   8.2322

     occupation numbers 
     1.0000   1.0000   1.0000   1.0000   1.0000   1.0000   1.0000   1.0000
     1.0000   1.0000   1.0000   1.0000   0.0443  -0.0059  -0.0000  -0.0000

          k = 0.2500-0.2500 0.0000 (  1708 PWs)   bands (ev):

   -50.8415 -48.9583 -28.8169 -28.6451 -27.2300 -27.1994 -26.9797 -16.3558
   -11.7883   4.2838   6.0002   6.1772   6.7131   6.7513   7.2087   8.2135

     occupation numbers 
     1.0000   1.0000   1.0000   1.0000   1.0000   1.0000   1.0000   1.0000
     1.0000   1.0000   1.0000   1.0039  -0.0171  -0.0076  -0.0000  -0.0000

[...]
          4452 MiB available memory on the node where the printing process lives
------------------
     ethr =  1.88E-11,  avg # of iterations =  9.9

     total cpu time spent up to now is      632.6 secs

     total energy              =    -184.43346950 Ry
     estimated scf accuracy    <       0.00000003 Ry

     iteration #  9     ecut=    40.00 Ry     beta= 0.70
     Davidson diagonalization with overlap

---- Real-time Memory Report at c_bands before calling an iterative solver
           204 MiB given to the printing process from OS
             0 MiB allocation reported by mallinfo(arena+hblkhd)
          4452 MiB available memory on the node where the printing process lives
------------------
     ethr =  1.88E-11,  avg # of iterations =  1.7

     total cpu time spent up to now is      633.7 secs

     total energy              =    -184.43346950 Ry
     estimated scf accuracy    <          8.7E-09 Ry

     iteration # 10     ecut=    40.00 Ry     beta= 0.70
     Davidson diagonalization with overlap

---- Real-time Memory Report at c_bands before calling an iterative solver
           204 MiB given to the printing process from OS
             0 MiB allocation reported by mallinfo(arena+hblkhd)
          4452 MiB available memory on the node where the printing process lives
------------------
     ethr =  1.88E-11,  avg # of iterations =  6.0

     total cpu time spent up to now is      634.9 secs

     total energy              =    -184.43346950 Ry
     estimated scf accuracy    <          2.5E-09 Ry

     iteration # 11     ecut=    40.00 Ry     beta= 0.70
     Davidson diagonalization with overlap

---- Real-time Memory Report at c_bands before calling an iterative solver
           204 MiB given to the printing process from OS
             0 MiB allocation reported by mallinfo(arena+hblkhd)
          4452 MiB available memory on the node where the printing process lives
------------------
     ethr =  1.02E-11,  avg # of iterations =  1.2

     total cpu time spent up to now is      635.9 secs

     total energy              =    -184.43346950 Ry
     estimated scf accuracy    <          4.4E-10 Ry

     iteration # 12     ecut=    40.00 Ry     beta= 0.70
     Davidson diagonalization with overlap

---- Real-time Memory Report at c_bands before calling an iterative solver
           204 MiB given to the printing process from OS
             0 MiB allocation reported by mallinfo(arena+hblkhd)
          4452 MiB available memory on the node where the printing process lives
------------------
     ethr =  1.82E-12,  avg # of iterations =  4.8

     total cpu time spent up to now is      637.1 secs

     End of self-consistent calculation

          k = 0.0000 0.0000 0.0000 (  1743 PWs)   bands (ev):

   -53.5819 -30.0309 -30.0269 -29.8541 -15.4273 -12.1686  -3.2422  -0.3289
    -0.3033   0.2257   1.8771   3.0666   5.1907   5.6269   5.9840   6.1495

     occupation numbers 
     1.0000   1.0000   1.0000   1.0000   1.0000   1.0000   1.0000   1.0000
     1.0000   1.0000   1.0000   1.0000  -0.0000  -0.0000  -0.0000  -0.0000

          k = 0.0000 0.0000 0.2500 (  1707 PWs)   bands (ev):

   -53.5815 -30.0304 -30.0263 -29.8607 -15.4111 -12.1614  -3.2218  -0.6566
    -0.2986   0.2405   1.7554   3.9019   5.2602   5.5830   5.9896   6.0878

     occupation numbers 
     1.0000   1.0000   1.0000   1.0000   1.0000   1.0000   1.0000   1.0000
     1.0000   1.0000   1.0000   1.0044  -0.0000  -0.0000  -0.0000  -0.0000

          k = 0.0000 0.0000-0.5000 (  1686 PWs)   bands (ev):

   -53.5811 -30.0298 -30.0257 -29.8673 -15.3947 -12.1543  -3.2033  -0.9388
    -0.2729   0.2479   1.6362   4.6827   5.3986   5.9968   6.0134   6.0209

     occupation numbers 
     1.0000   1.0000   1.0000   1.0000   1.0000   1.0000   1.0000   1.0000
     1.0000   1.0000   1.0000  -0.0000  -0.0000  -0.0000  -0.0000  -0.0000

          k = 0.0000 0.2500 0.2500 (  1708 PWs)   bands (ev):

   -53.5809 -30.0481 -30.0277 -29.8599 -15.2982 -12.2241  -3.0374  -0.9258
    -0.7145   0.6473   1.8415   4.0472   5.4314   5.7736   5.7849   5.9247

     occupation numbers 
     1.0000   1.0000   1.0000   1.0000   1.0000   1.0000   1.0000   1.0000
     1.0000   1.0000   1.0000   1.0328  -0.0000  -0.0000  -0.0000  -0.0000

          k = 0.0000 0.2500-0.5000 (  1700 PWs)   bands (ev):

   -53.5805 -30.0475 -30.0271 -29.8665 -15.2828 -12.2169  -3.0196  -0.9960
    -0.8610   0.6558   1.7295   4.9698   5.4677   5.8028   5.8360   5.8865

     occupation numbers 
     1.0000   1.0000   1.0000   1.0000   1.0000   1.0000   1.0000   1.0000
     1.0000   1.0000   1.0000  -0.0000  -0.0000  -0.0000  -0.0000  -0.0000

          k = 0.0000-0.5000-0.5000 (  1692 PWs)   bands (ev):

   -53.5799 -30.0690 -30.0244 -29.8656 -15.1687 -12.2782  -2.7947  -1.4020
    -1.0520   1.1338   1.8358   5.2831   5.3711   5.5091   5.6441   5.8589

     occupation numbers 
     1.0000   1.0000   1.0000   1.0000   1.0000   1.0000   1.0000   1.0000
     1.0000   1.0000   1.0000  -0.0000  -0.0000  -0.0000  -0.0000  -0.0000

          k = 0.2500 0.2500 0.2500 (  1713 PWs)   bands (ev):

   -53.5805 -30.0467 -30.0367 -29.8593 -15.0294 -12.7756  -1.9704  -0.8642
    -0.4198   0.8159   1.3550   4.1165   4.3198   5.6095   5.8596   6.0963

     occupation numbers 
     1.0000   1.0000   1.0000   1.0000   1.0000   1.0000   1.0000   1.0000
     1.0000   1.0000   1.0000   0.9174  -0.0114  -0.0000  -0.0000  -0.0000

          k = 0.2500 0.2500-0.5000 (  1710 PWs)   bands (ev):

   -53.5802 -30.0461 -30.0361 -29.8659 -15.0151 -12.7660  -1.9554  -0.8163
    -0.6798   0.8343   1.2006   4.1487   5.2684   5.5160   5.7705   6.2441

     occupation numbers 
     1.0000   1.0000   1.0000   1.0000   1.0000   1.0000   1.0000   1.0000
     1.0000   1.0000   1.0000   0.7821  -0.0000  -0.0000  -0.0000  -0.0000

          k = 0.2500-0.5000-0.5000 (  1692 PWs)   bands (ev):

   -53.5794 -30.0653 -30.0349 -29.8650 -14.9475 -12.7526  -1.7599  -1.0538
    -0.7177   0.9069   1.2710   4.0775   5.1781   5.6666   5.8102   5.9770

     occupation numbers 
     1.0000   1.0000   1.0000   1.0000   1.0000   1.0000   1.0000   1.0000
     1.0000   1.0000   1.0000   1.0080  -0.0000  -0.0000  -0.0000  -0.0000

          k =-0.5000-0.5000-0.5000 (  1736 PWs)   bands (ev):

   -53.5791 -30.0605 -30.0468 -29.8646 -14.6096 -13.3173  -0.8319   0.1064
     0.1456   0.2467   0.7553   1.9985   4.8613   5.8118   6.1552   6.7113

     occupation numbers 
     1.0000   1.0000   1.0000   1.0000   1.0000   1.0000   1.0000   1.0000
     1.0000   1.0000   1.0000   1.0000  -0.0000  -0.0000  -0.0000  -0.0000

          k = 0.2500 0.0000 0.0000 (  1707 PWs)   bands (ev):

   -53.5814 -30.0436 -30.0225 -29.8535 -15.1170 -12.7910  -2.1493  -0.7741
    -0.0479   0.9224   1.4948   3.4248   4.2663   5.6222   5.7557   6.0058

     occupation numbers 
     1.0000   1.0000   1.0000   1.0000   1.0000   1.0000   1.0000   1.0000
     1.0000   1.0000   1.0000   1.0000   0.1264  -0.0000  -0.0000  -0.0000

          k = 0.0000 0.2500 0.0000 (  1707 PWs)   bands (ev):

   -53.5812 -30.0487 -30.0282 -29.8533 -15.3135 -12.2312  -3.0552  -0.9727
    -0.4057   0.6398   1.9577   3.3169   5.3680   5.7793   5.9203   6.0164

     occupation numbers 
     1.0000   1.0000   1.0000   1.0000   1.0000   1.0000   1.0000   1.0000
     1.0000   1.0000   1.0000   1.0000  -0.0000  -0.0000  -0.0000  -0.0000

          k =-0.5000 0.0000 0.0000 (  1686 PWs)   bands (ev):

   -53.5810 -30.0544 -30.0199 -29.8529 -14.5504 -13.6291  -1.4754   0.4608
     0.5579   0.8678   1.0282   2.0471   3.9113   5.8003   5.9276   6.6632

     occupation numbers 
     1.0000   1.0000   1.0000   1.0000   1.0000   1.0000   1.0000   1.0000
     1.0000   1.0000   1.0000   1.0000   1.0057  -0.0000  -0.0000  -0.0000

          k = 0.0000-0.5000 0.0000 (  1686 PWs)   bands (ev):

   -53.5805 -30.0703 -30.0255 -29.8525 -15.1973 -12.2926  -2.8308  -1.5381
    -0.5043   1.1197   2.0386   3.5745   5.1932   5.4735   5.8630   6.2331

     occupation numbers 
     1.0000   1.0000   1.0000   1.0000   1.0000   1.0000   1.0000   1.0000
     1.0000   1.0000   1.0000   1.0000  -0.0000  -0.0000  -0.0000  -0.0000

          k = 0.2500 0.0000-0.2500 (  1708 PWs)   bands (ev):

   -53.5811 -30.0431 -30.0219 -29.8601 -15.1020 -12.7813  -2.1331  -0.7525
    -0.3757   0.9440   1.3238   4.1752   4.3060   5.5527   5.7710   6.0599

     occupation numbers 
     1.0000   1.0000   1.0000   1.0000   1.0000   1.0000   1.0000   1.0000
     1.0000   1.0000   1.0000   0.6359   0.0103  -0.0000  -0.0000  -0.0000

          k = 0.2500-0.2500 0.0000 (  1708 PWs)   bands (ev):

   -53.5808 -30.0473 -30.0372 -29.8528 -15.0437 -12.7850  -1.9848  -0.9065
    -0.1255   0.7982   1.5174   3.5753   4.1269   5.7761   5.8196   6.1408

     occupation numbers 
     1.0000   1.0000   1.0000   1.0000   1.0000   1.0000   1.0000   1.0000
     1.0000   1.0000   1.0000   1.0000   0.8797  -0.0000  -0.0000  -0.0000

          k = 0.2500 0.0000 0.5000 (  1700 PWs)   bands (ev):

   -53.5808 -30.0425 -30.0214 -29.8667 -15.0868 -12.7716  -2.1157  -0.7280
    -0.6482   0.9658   1.1622   4.2746   4.9407   5.6872   5.7354   6.4742

     occupation numbers 
     1.0000   1.0000   1.0000   1.0000   1.0000   1.0000   1.0000   1.0000
     1.0000   1.0000   1.0000   0.0949  -0.0000  -0.0000  -0.0000  -0.0000

          k =-0.5000-0.2500 0.0000 (  1700 PWs)   bands (ev):

   -53.5804 -30.0512 -30.0409 -29.8522 -14.5918 -13.4873  -1.2128   0.3506
     0.5473   0.7035   0.9021   1.9599   3.9352   5.6138   6.2857   6.4267

     occupation numbers 
     1.0000   1.0000   1.0000   1.0000   1.0000   1.0000   1.0000   1.0000
     1.0000   1.0000   1.0000   1.0000   1.0101  -0.0000  -0.0000  -0.0000

          k = 0.0000-0.5000 0.2500 (  1700 PWs)   bands (ev):

   -53.5802 -30.0697 -30.0249 -29.8591 -15.1831 -12.2854  -2.8135  -1.4716
    -0.7910   1.1250   1.9340   4.2158   5.2358   5.4853   5.7568   6.0867

     occupation numbers 
     1.0000   1.0000   1.0000   1.0000   1.0000   1.0000   1.0000   1.0000
     1.0000   1.0000   1.0000   0.3867  -0.0000  -0.0000  -0.0000  -0.0000

          k = 0.2500-0.5000 0.0000 (  1700 PWs)   bands (ev):

   -53.5801 -30.0666 -30.0361 -29.8519 -14.9743 -12.7711  -1.7883  -1.1808
    -0.2041   0.8762   1.5583   3.7692   4.0436   5.5367   5.6216   6.4644

     occupation numbers 
     1.0000   1.0000   1.0000   1.0000   1.0000   1.0000   1.0000   1.0000
     1.0000   1.0000   1.0000   1.0000   1.0339  -0.0000  -0.0000  -0.0000

          k =-0.5000 0.0000 0.2500 (  1700 PWs)   bands (ev):

   -53.5807 -30.0539 -30.0193 -29.8596 -14.5383 -13.6154  -1.4592   0.1956
     0.5520   0.6463   1.0443   2.0743   4.5784   5.6201   5.7722   7.0854

     occupation numbers 
     1.0000   1.0000   1.0000   1.0000   1.0000   1.0000   1.0000   1.0000
     1.0000   1.0000   1.0000   1.0000  -0.0003  -0.0000  -0.0000  -0.0000

          k =-0.5000 0.0000 0.5000 (  1692 PWs)   bands (ev):

   -53.5804 -30.0533 -30.0187 -29.8661 -14.5262 -13.6016  -1.4397  -0.0425
     0.4006   0.6176   1.0581   2.0961   5.1965   5.5092   5.8477   7.4459

     occupation numbers 
     1.0000   1.0000   1.0000   1.0000   1.0000   1.0000   1.0000   1.0000
     1.0000   1.0000   1.0000   1.0000  -0.0000  -0.0000  -0.0000  -0.0000

          k =-0.5000 0.5000 0.0000 (  1692 PWs)   bands (ev):

   -53.5797 -30.0616 -30.0478 -29.8514 -14.6328 -13.3413  -0.8653   0.0713
     0.5546   0.6393   0.6675   1.9810   4.0067   5.4248   6.2661   6.3899

     occupation numbers 
     1.0000   1.0000   1.0000   1.0000   1.0000   1.0000   1.0000   1.0000
     1.0000   1.0000   1.0000   1.0000   1.0317  -0.0000  -0.0000  -0.0000

          k =-0.5000-0.2500 0.2500 (  1710 PWs)   bands (ev):

   -53.5801 -30.0506 -30.0403 -29.8587 -14.5800 -13.4744  -1.1930   0.3087
     0.3639   0.4822   0.9297   1.9731   4.6198   5.3590   6.1272   6.7938

     occupation numbers 
     1.0000   1.0000   1.0000   1.0000   1.0000   1.0000   1.0000   1.0000
     1.0000   1.0000   1.0000   1.0000  -0.0001  -0.0000  -0.0000  -0.0000

          k =-0.2500-0.5000 0.2500 (  1710 PWs)   bands (ev):

   -53.5798 -30.0660 -30.0355 -29.8585 -14.9610 -12.7619  -1.7744  -1.1191
    -0.4742   0.8903   1.4111   4.0592   4.4218   5.3935   5.6620   6.3309

     occupation numbers 
     1.0000   1.0000   1.0000   1.0000   1.0000   1.0000   1.0000   1.0000
     1.0000   1.0000   1.0000   1.0266  -0.0208  -0.0000  -0.0000  -0.0000

          k =-0.5000 0.2500 0.5000 (  1692 PWs)   bands (ev):

   -53.5797 -30.0500 -30.0396 -29.8652 -14.5681 -13.4614  -1.1706   0.0961
     0.2491   0.4203   0.9543   1.9883   5.1941   5.6432   5.8613   7.0415

     occupation numbers 
     1.0000   1.0000   1.0000   1.0000   1.0000   1.0000   1.0000   1.0000
     1.0000   1.0000   1.0000   1.0000  -0.0000  -0.0000  -0.0000  -0.0000

          k =-0.5000 0.5000 0.2500 (  1692 PWs)   bands (ev):

   -53.5793 -30.0610 -30.0473 -29.8579 -14.6212 -13.3293  -0.8469   0.1033
     0.3306   0.4303   0.7173   1.9919   4.6740   5.1054   6.4331   6.5765

     occupation numbers 
     1.0000   1.0000   1.0000   1.0000   1.0000   1.0000   1.0000   1.0000
     1.0000   1.0000   1.0000   1.0000  -0.0000  -0.0000  -0.0000  -0.0000

     the Fermi energy is     4.1974 ev

!    total energy              =    -184.43346950 Ry
     estimated scf accuracy    <          5.6E-11 Ry
     smearing contrib. (-TS)   =      -0.00013234 Ry
     internal energy E=F+TS    =    -184.43333716 Ry

     The total energy is F=E-TS. E is the sum of the following terms:
     one-electron contribution =    -132.12322061 Ry
     hartree contribution      =      72.52816719 Ry
     xc contribution           =     -33.17567239 Ry
     ewald contribution        =     -91.66261135 Ry

     convergence has been achieved in  12 iterations

     Forces acting on atoms (cartesian axes, Ry/au):

     atom    1 type  1   force =     0.00000000    0.00010854    0.00000000
     atom    2 type  2   force =    -0.00019900   -0.00005427    0.00000000
     atom    3 type  2   force =     0.00019900   -0.00005427    0.00000000
     The non-local contrib.  to forces
     atom    1 type  1   force =     0.00000000   -0.19214708    0.00000000
     atom    2 type  2   force =    -0.27945472    0.68456683    0.00000000
     atom    3 type  2   force =     0.27945472    0.68456683    0.00000000
     The ionic contribution  to forces
     atom    1 type  1   force =     0.00000000   13.33469462    0.00000000
     atom    2 type  2   force =     4.83324787   -6.66734731    0.00000000
     atom    3 type  2   force =    -4.83324787   -6.66734731   -0.00000000
     The local contribution  to forces
     atom    1 type  1   force =     0.00000000  -13.18462721    0.00000000
     atom    2 type  2   force =    -4.55454120    5.98667645   -0.00000000
     atom    3 type  2   force =     4.55454120    5.98667645    0.00000000
     The core correction contribution to forces
     atom    1 type  1   force =     0.00000000    0.04218611    0.00000000
     atom    2 type  2   force =     0.00055414   -0.00394639    0.00000000
     atom    3 type  2   force =    -0.00055414   -0.00394639    0.00000000
     The Hubbard contrib.    to forces
     atom    1 type  1   force =     0.00000000    0.00000000    0.00000000
     atom    2 type  2   force =     0.00000000    0.00000000    0.00000000
     atom    3 type  2   force =     0.00000000    0.00000000    0.00000000
     The SCF correction term to forces
     atom    1 type  1   force =    -0.00000000    0.00001005    0.00000000
     atom    2 type  2   force =    -0.00000509    0.00000411    0.00000000
     atom    3 type  2   force =     0.00000509    0.00000411   -0.00000000

     Total force =     0.000311     Total SCF correction =     0.000014
     Energy error            =      6.6E-06 Ry
     Gradient error          =      2.0E-04 Ry/Bohr

     bfgs converged in  36 scf cycles and  35 bfgs steps
     (criteria: energy <  1.0E-04 Ry, force <  1.0E-03 Ry/Bohr)

     End of BFGS Geometry Optimization

     Final energy             =    -184.4334694984 Ry

     File ./tmp/tio2_relax.bfgs deleted, as requested
Begin final coordinates

ATOMIC_POSITIONS (angstrom)
Ti            0.0000000000       -0.3733560110        0.0000000000
O             1.0318604233        2.1316780055        0.0000000000
O            -1.0318604233        2.1316780055       -0.0000000000
End final coordinates



     Writing all to output data dir ./tmp/tio2_relax.save/

     init_run     :      1.08s CPU      1.15s WALL (       1 calls)
     electrons    :    596.97s CPU    620.74s WALL (      36 calls)
     update_pot   :      2.28s CPU      2.28s WALL (      35 calls)
     forces       :     10.13s CPU     10.58s WALL (      36 calls)

     Called by init_run:
     wfcinit      :      0.49s CPU      0.49s WALL (       1 calls)
     wfcinit:atom :      0.01s CPU      0.01s WALL (      27 calls)
     wfcinit:wfcr :      0.44s CPU      0.44s WALL (      27 calls)
     potinit      :      0.18s CPU      0.18s WALL (       1 calls)
     hinit0       :      0.35s CPU      0.36s WALL (       1 calls)

     Called by electrons:
     c_bands      :    491.76s CPU    496.46s WALL (     418 calls)
     sum_band     :     69.78s CPU     83.71s WALL (     418 calls)
     v_of_rho     :     13.06s CPU     13.10s WALL (     446 calls)
     v_h          :      0.59s CPU      0.59s WALL (     446 calls)
     v_xc         :     13.46s CPU     13.50s WALL (     482 calls)
     newd         :     23.01s CPU     28.48s WALL (     446 calls)
     mix_rho      :      1.24s CPU      1.26s WALL (     418 calls)

     Called by c_bands:
     init_us_2    :      7.54s CPU      7.57s WALL (   23571 calls)
     init_us_2:cp :      7.51s CPU      7.55s WALL (   23571 calls)
     cegterg      :    475.87s CPU    480.40s WALL (   11288 calls)

     Called by sum_band:
     sum_band:wei :      0.21s CPU      0.21s WALL (     418 calls)
     sum_band:loo :     45.43s CPU     45.85s WALL (     418 calls)
     sum_band:buf :      0.43s CPU      0.44s WALL (   11286 calls)
     sum_band:ini :      3.55s CPU      3.56s WALL (   11286 calls)
     sum_band:cal :     12.99s CPU     13.11s WALL (   11286 calls)
     sum_band:bec :      0.14s CPU      0.14s WALL (   11286 calls)
     addusdens    :     23.14s CPU     36.64s WALL (     418 calls)
                                        0.00s GPU  (     418 calls)
     addusd:skk   :      0.16s CPU      0.16s WALL (     836 calls)
                                        0.00s GPU  (     836 calls)

     Called by *egterg:
     cdiaghg      :     14.71s CPU     14.95s WALL (   66593 calls)
     cegterg:over :     47.05s CPU     47.53s WALL (   56468 calls)
     cegterg:upda :     30.52s CPU     30.77s WALL (   56468 calls)
     cegterg:last :     73.09s CPU     73.67s WALL (   29886 calls)
     h_psi        :    250.72s CPU    253.15s WALL (   67783 calls)
     s_psi        :     41.90s CPU     42.38s WALL (   67783 calls)
     g_psi        :      2.04s CPU      2.06s WALL (   56468 calls)

     Called by h_psi:
     h_psi:calbec :     41.61s CPU     42.07s WALL (   67783 calls)
     vloc_psi     :    165.45s CPU    167.08s WALL (   67783 calls)
     add_vuspsi   :     42.20s CPU     42.54s WALL (   67783 calls)

     General routines
     calbec       :     58.75s CPU     59.39s WALL (   82957 calls)
     fft          :      4.74s CPU      4.76s WALL (    6165 calls)
     ffts         :      0.28s CPU      0.28s WALL (     864 calls)
     fftw         :    150.31s CPU    151.81s WALL ( 1293202 calls)
     interpolate  :      0.64s CPU      0.65s WALL (     446 calls)

     Parallel routines

     PWSCF        :  10m12.61s CPU  10m37.40s WALL


   This run was terminated on:  22:39:29  17Jul2025            

=------------------------------------------------------------------------------=
   JOB DONE.
=------------------------------------------------------------------------------=
