
     Program PWSCF v.7.2 starts on 17Jul2025 at 23: 3:28 

     This program is part of the open-source Quantum ESPRESSO suite
     for quantum simulation of materials; please cite
         "P. Giannozzi et al., J. Phys.:Condens. Matter 21 395502 (2009);
         "P. Giannozzi et al., J. Phys.:Condens. Matter 29 465901 (2017);
         "P. Giannozzi et al., J. Chem. Phys. 152 154105 (2020);
          URL http://www.quantum-espresso.org", 
     in publications or presentations arising from this work. More details at
     http://www.quantum-espresso.org/quote

     Parallel version (MPI), running on     1 processors

     MPI processes distributed on     1 nodes
     4514 MiB available memory on the printing compute node when the environment starts

     Waiting for input...
     Reading input from standard input

     Current dimensions of program PWSCF are:
     Max number of different atomic species (ntypx) = 10
     Max number of k-points (npk) =  40000
     Max angular momentum in pseudopotentials (lmaxx) =  4

     Atomic positions and unit cell read from directory:
     ./tmp/tio2.save/
     Atomic positions from file used, from input discarded

     file Ti.pbe-spn-rrkjus_psl.1.0.0.UPF: wavefunction(s)  3S 3D renormalized

     Subspace diagonalization in iterative solution of the eigenvalue problem:
     a serial algorithm will be used


     G-vector sticks info
     --------------------
     sticks:   dense  smooth     PW     G-vecs:    dense   smooth      PW
     Sum        1369     681    221                38641    13613    2373

     Using Slab Decomposition



     bravais-lattice index     =            1
     lattice parameter (alat)  =       7.3700  a.u.
     unit-cell volume          =     400.3156 (a.u.)^3
     number of atoms/cell      =            3
     number of atomic types    =            2
     number of electrons       =        24.00
     number of Kohn-Sham states=           12
     kinetic-energy cutoff     =      40.0000  Ry
     charge density cutoff     =     320.0000  Ry
     Exchange-correlation= PBE
                           (   1   4   3   4   0   0   0)

     celldm(1)=   7.370000  celldm(2)=   0.000000  celldm(3)=   0.000000
     celldm(4)=   0.000000  celldm(5)=   0.000000  celldm(6)=   0.000000

     crystal axes: (cart. coord. in units of alat)
               a(1) = (   1.000000   0.000000   0.000000 )  
               a(2) = (   0.000000   1.000000   0.000000 )  
               a(3) = (   0.000000   0.000000   1.000000 )  

     reciprocal axes: (cart. coord. in units 2 pi/alat)
               b(1) = (  1.000000  0.000000  0.000000 )  
               b(2) = (  0.000000  1.000000  0.000000 )  
               b(3) = (  0.000000  0.000000  1.000000 )  


     PseudoPot. # 1 for Ti read from file:
     ../pseudo/Ti.pbe-spn-rrkjus_psl.1.0.0.UPF
     MD5 check sum: e281089c08e14b8efcf92e44a67ada65
     Pseudo is Ultrasoft + core correction, Zval = 12.0
     Generated using &quot;atomic&quot; code by A. Dal Corso  v.6.2.2
     Using radial grid of 1177 points,  6 beta functions with: 
                l(1) =   0
                l(2) =   0
                l(3) =   1
                l(4) =   1
                l(5) =   2
                l(6) =   2
     Q(r) pseudized with 0 coefficients 


     PseudoPot. # 2 for O  read from file:
     ../pseudo/O.pbe-n-rrkjus_psl.1.0.0.UPF
     MD5 check sum: 91400c9766925bcf19f520983a725ff0
     Pseudo is Ultrasoft + core correction, Zval =  6.0
     Generated using &quot;atomic&quot; code by A. Dal Corso  v.6.3MaX
     Using radial grid of 1095 points,  4 beta functions with: 
                l(1) =   0
                l(2) =   0
                l(3) =   1
                l(4) =   1
     Q(r) pseudized with 0 coefficients 


     atomic species   valence    mass     pseudopotential
        Ti            12.00    47.86700     Ti( 1.00)
        O              6.00    15.99900     O ( 1.00)

      4 Sym. Ops. (no inversion) found


                                    s                        frac. trans.

      isym =  1     identity                                     

 cryst.   s( 1) = (     1          0          0      )
                  (     0          1          0      )
                  (     0          0          1      )

 cart.    s( 1) = (  1.0000000  0.0000000  0.0000000 )
                  (  0.0000000  1.0000000  0.0000000 )
                  (  0.0000000  0.0000000  1.0000000 )


      isym =  2     180 deg rotation - cart. axis [0,1,0]        

 cryst.   s( 2) = (    -1          0          0      )
                  (     0          1          0      )
                  (     0          0         -1      )

 cart.    s( 2) = ( -1.0000000  0.0000000  0.0000000 )
                  (  0.0000000  1.0000000  0.0000000 )
                  (  0.0000000  0.0000000 -1.0000000 )


      isym =  3     inv. 180 deg rotation - cart. axis [0,0,1]   

 cryst.   s( 3) = (     1          0          0      )
                  (     0          1          0      )
                  (     0          0         -1      )

 cart.    s( 3) = (  1.0000000  0.0000000  0.0000000 )
                  (  0.0000000  1.0000000  0.0000000 )
                  (  0.0000000  0.0000000 -1.0000000 )


      isym =  4     inv. 180 deg rotation - cart. axis [1,0,0]   

 cryst.   s( 4) = (    -1          0          0      )
                  (     0          1          0      )
                  (     0          0          1      )

 cart.    s( 4) = ( -1.0000000  0.0000000  0.0000000 )
                  (  0.0000000  1.0000000  0.0000000 )
                  (  0.0000000  0.0000000  1.0000000 )


     point group C_2v (mm2) 
     there are  4 classes
     the character table:

       E     C2    s_v   s_v' 
A_1    1.00  1.00  1.00  1.00
A_2    1.00  1.00 -1.00 -1.00
B_1    1.00 -1.00  1.00 -1.00
B_2    1.00 -1.00 -1.00  1.00

     the symmetry operations in each class and the name of the first element:

     E        1
          identity                                               
     C2       2
          180 deg rotation - cart. axis [0,1,0]                  
     s_v      3
          inv. 180 deg rotation - cart. axis [0,0,1]             
     s_v'     4
          inv. 180 deg rotation - cart. axis [1,0,0]             

   Cartesian axes

     site n.     atom                  positions (alat units)
         1           Ti  tau(   1) = (   0.0000000   0.0000000   0.0000000  )
         2           O   tau(   2) = (   0.4987133   0.4987133   0.0000000  )
         3           O   tau(   3) = (  -0.4987133   0.4987133   0.0000000  )

   Crystallographic axes

     site n.     atom                  positions (cryst. coord.)
         1           Ti  tau(   1) = (  0.0000000  0.0000000  0.0000000  )
         2           O   tau(   2) = (  0.4987133  0.4987133  0.0000000  )
         3           O   tau(   3) = ( -0.4987133  0.4987133  0.0000000  )

     number of k points=    64  Methfessel-Paxton smearing, width (Ry)=  0.0100
                       cart. coord. in units 2pi/alat
        k(    1) = (   0.0000000   0.0000000   0.0000000), wk =   0.0092593
        k(    2) = (   0.0000000   0.0000000   0.1666667), wk =   0.0185185
        k(    3) = (   0.0000000   0.0000000   0.3333333), wk =   0.0185185
        k(    4) = (   0.0000000   0.0000000  -0.5000000), wk =   0.0092593
        k(    5) = (   0.0000000   0.1666667   0.1666667), wk =   0.0370370
        k(    6) = (   0.0000000   0.1666667   0.3333333), wk =   0.0370370
        k(    7) = (   0.0000000   0.1666667  -0.5000000), wk =   0.0185185
        k(    8) = (   0.0000000   0.3333333   0.3333333), wk =   0.0370370
        k(    9) = (   0.0000000   0.3333333  -0.5000000), wk =   0.0185185
        k(   10) = (   0.0000000  -0.5000000  -0.5000000), wk =   0.0092593
        k(   11) = (   0.1666667   0.1666667   0.1666667), wk =   0.0740741
        k(   12) = (   0.1666667   0.1666667   0.3333333), wk =   0.0740741
        k(   13) = (   0.1666667   0.1666667  -0.5000000), wk =   0.0370370
        k(   14) = (   0.1666667   0.3333333   0.3333333), wk =   0.0740741
        k(   15) = (   0.1666667   0.3333333  -0.5000000), wk =   0.0370370
        k(   16) = (   0.1666667  -0.5000000  -0.5000000), wk =   0.0185185
        k(   17) = (   0.3333333   0.3333333   0.3333333), wk =   0.0740741
        k(   18) = (   0.3333333   0.3333333  -0.5000000), wk =   0.0370370
        k(   19) = (   0.3333333  -0.5000000  -0.5000000), wk =   0.0185185
        k(   20) = (  -0.5000000  -0.5000000  -0.5000000), wk =   0.0092593
        k(   21) = (   0.1666667   0.0000000   0.0000000), wk =   0.0185185
        k(   22) = (   0.0000000   0.1666667   0.0000000), wk =   0.0185185
        k(   23) = (   0.3333333   0.0000000   0.0000000), wk =   0.0185185
        k(   24) = (   0.0000000   0.3333333   0.0000000), wk =   0.0185185
        k(   25) = (  -0.5000000   0.0000000   0.0000000), wk =   0.0092593
        k(   26) = (   0.0000000  -0.5000000   0.0000000), wk =   0.0092593
        k(   27) = (   0.1666667   0.0000000  -0.1666667), wk =   0.0370370
        k(   28) = (   0.1666667  -0.1666667   0.0000000), wk =   0.0370370
        k(   29) = (   0.1666667   0.0000000  -0.3333333), wk =   0.0370370
        k(   30) = (   0.3333333  -0.1666667   0.0000000), wk =   0.0370370
        k(   31) = (   0.0000000   0.3333333   0.1666667), wk =   0.0370370
        k(   32) = (   0.1666667   0.3333333   0.0000000), wk =   0.0370370
        k(   33) = (   0.3333333   0.0000000   0.1666667), wk =   0.0370370
        k(   34) = (   0.1666667   0.0000000   0.5000000), wk =   0.0185185
        k(   35) = (  -0.5000000  -0.1666667   0.0000000), wk =   0.0185185
        k(   36) = (   0.0000000  -0.5000000   0.1666667), wk =   0.0185185
        k(   37) = (   0.1666667  -0.5000000   0.0000000), wk =   0.0185185
        k(   38) = (  -0.5000000   0.0000000   0.1666667), wk =   0.0185185
        k(   39) = (   0.3333333   0.0000000  -0.3333333), wk =   0.0370370
        k(   40) = (   0.3333333  -0.3333333   0.0000000), wk =   0.0370370
        k(   41) = (   0.3333333   0.0000000   0.5000000), wk =   0.0185185
        k(   42) = (  -0.5000000  -0.3333333   0.0000000), wk =   0.0185185
        k(   43) = (   0.0000000  -0.5000000   0.3333333), wk =   0.0185185
        k(   44) = (   0.3333333  -0.5000000   0.0000000), wk =   0.0185185
        k(   45) = (  -0.5000000   0.0000000   0.3333333), wk =   0.0185185
        k(   46) = (  -0.5000000   0.0000000   0.5000000), wk =   0.0092593
        k(   47) = (  -0.5000000   0.5000000   0.0000000), wk =   0.0092593
        k(   48) = (   0.3333333  -0.1666667   0.1666667), wk =   0.0740741
        k(   49) = (  -0.1666667   0.3333333   0.1666667), wk =   0.0740741
        k(   50) = (  -0.5000000  -0.1666667   0.1666667), wk =   0.0370370
        k(   51) = (  -0.1666667  -0.5000000   0.1666667), wk =   0.0370370
        k(   52) = (   0.3333333   0.1666667  -0.3333333), wk =   0.0740741
        k(   53) = (   0.3333333  -0.3333333   0.1666667), wk =   0.0740741
        k(   54) = (   0.3333333   0.1666667   0.5000000), wk =   0.0370370
        k(   55) = (  -0.5000000  -0.3333333   0.1666667), wk =   0.0370370
        k(   56) = (  -0.1666667  -0.5000000   0.3333333), wk =   0.0370370
        k(   57) = (   0.3333333  -0.5000000   0.1666667), wk =   0.0370370
        k(   58) = (  -0.5000000   0.1666667   0.3333333), wk =   0.0370370
        k(   59) = (  -0.5000000   0.1666667   0.5000000), wk =   0.0185185
        k(   60) = (  -0.5000000   0.5000000   0.1666667), wk =   0.0185185
        k(   61) = (  -0.5000000  -0.3333333   0.3333333), wk =   0.0370370
        k(   62) = (  -0.3333333  -0.5000000   0.3333333), wk =   0.0370370
        k(   63) = (  -0.5000000   0.3333333   0.5000000), wk =   0.0185185
        k(   64) = (  -0.5000000   0.5000000   0.3333333), wk =   0.0185185

                       cryst. coord.
        k(    1) = (   0.0000000   0.0000000   0.0000000), wk =   0.0092593
        k(    2) = (   0.0000000   0.0000000   0.1666667), wk =   0.0185185
        k(    3) = (   0.0000000   0.0000000   0.3333333), wk =   0.0185185
        k(    4) = (   0.0000000   0.0000000  -0.5000000), wk =   0.0092593
        k(    5) = (   0.0000000   0.1666667   0.1666667), wk =   0.0370370
        k(    6) = (   0.0000000   0.1666667   0.3333333), wk =   0.0370370
        k(    7) = (   0.0000000   0.1666667  -0.5000000), wk =   0.0185185
        k(    8) = (   0.0000000   0.3333333   0.3333333), wk =   0.0370370
        k(    9) = (   0.0000000   0.3333333  -0.5000000), wk =   0.0185185
        k(   10) = (   0.0000000  -0.5000000  -0.5000000), wk =   0.0092593
        k(   11) = (   0.1666667   0.1666667   0.1666667), wk =   0.0740741
        k(   12) = (   0.1666667   0.1666667   0.3333333), wk =   0.0740741
        k(   13) = (   0.1666667   0.1666667  -0.5000000), wk =   0.0370370
        k(   14) = (   0.1666667   0.3333333   0.3333333), wk =   0.0740741
        k(   15) = (   0.1666667   0.3333333  -0.5000000), wk =   0.0370370
        k(   16) = (   0.1666667  -0.5000000  -0.5000000), wk =   0.0185185
        k(   17) = (   0.3333333   0.3333333   0.3333333), wk =   0.0740741
        k(   18) = (   0.3333333   0.3333333  -0.5000000), wk =   0.0370370
        k(   19) = (   0.3333333  -0.5000000  -0.5000000), wk =   0.0185185
        k(   20) = (  -0.5000000  -0.5000000  -0.5000000), wk =   0.0092593
        k(   21) = (   0.1666667   0.0000000   0.0000000), wk =   0.0185185
        k(   22) = (   0.0000000   0.1666667   0.0000000), wk =   0.0185185
        k(   23) = (   0.3333333   0.0000000   0.0000000), wk =   0.0185185
        k(   24) = (   0.0000000   0.3333333   0.0000000), wk =   0.0185185
        k(   25) = (  -0.5000000   0.0000000   0.0000000), wk =   0.0092593
        k(   26) = (   0.0000000  -0.5000000   0.0000000), wk =   0.0092593
        k(   27) = (   0.1666667   0.0000000  -0.1666667), wk =   0.0370370
        k(   28) = (   0.1666667  -0.1666667   0.0000000), wk =   0.0370370
        k(   29) = (   0.1666667   0.0000000  -0.3333333), wk =   0.0370370
        k(   30) = (   0.3333333  -0.1666667   0.0000000), wk =   0.0370370
        k(   31) = (   0.0000000   0.3333333   0.1666667), wk =   0.0370370
        k(   32) = (   0.1666667   0.3333333   0.0000000), wk =   0.0370370
        k(   33) = (   0.3333333   0.0000000   0.1666667), wk =   0.0370370
        k(   34) = (   0.1666667   0.0000000   0.5000000), wk =   0.0185185
        k(   35) = (  -0.5000000  -0.1666667   0.0000000), wk =   0.0185185
        k(   36) = (   0.0000000  -0.5000000   0.1666667), wk =   0.0185185
        k(   37) = (   0.1666667  -0.5000000   0.0000000), wk =   0.0185185
        k(   38) = (  -0.5000000   0.0000000   0.1666667), wk =   0.0185185
        k(   39) = (   0.3333333   0.0000000  -0.3333333), wk =   0.0370370
        k(   40) = (   0.3333333  -0.3333333   0.0000000), wk =   0.0370370
        k(   41) = (   0.3333333   0.0000000   0.5000000), wk =   0.0185185
        k(   42) = (  -0.5000000  -0.3333333   0.0000000), wk =   0.0185185
        k(   43) = (   0.0000000  -0.5000000   0.3333333), wk =   0.0185185
        k(   44) = (   0.3333333  -0.5000000   0.0000000), wk =   0.0185185
        k(   45) = (  -0.5000000   0.0000000   0.3333333), wk =   0.0185185
        k(   46) = (  -0.5000000   0.0000000   0.5000000), wk =   0.0092593
        k(   47) = (  -0.5000000   0.5000000   0.0000000), wk =   0.0092593
        k(   48) = (   0.3333333  -0.1666667   0.1666667), wk =   0.0740741
        k(   49) = (  -0.1666667   0.3333333   0.1666667), wk =   0.0740741
        k(   50) = (  -0.5000000  -0.1666667   0.1666667), wk =   0.0370370
        k(   51) = (  -0.1666667  -0.5000000   0.1666667), wk =   0.0370370
        k(   52) = (   0.3333333   0.1666667  -0.3333333), wk =   0.0740741
        k(   53) = (   0.3333333  -0.3333333   0.1666667), wk =   0.0740741
        k(   54) = (   0.3333333   0.1666667   0.5000000), wk =   0.0370370
        k(   55) = (  -0.5000000  -0.3333333   0.1666667), wk =   0.0370370
        k(   56) = (  -0.1666667  -0.5000000   0.3333333), wk =   0.0370370
        k(   57) = (   0.3333333  -0.5000000   0.1666667), wk =   0.0370370
        k(   58) = (  -0.5000000   0.1666667   0.3333333), wk =   0.0370370
        k(   59) = (  -0.5000000   0.1666667   0.5000000), wk =   0.0185185
        k(   60) = (  -0.5000000   0.5000000   0.1666667), wk =   0.0185185
        k(   61) = (  -0.5000000  -0.3333333   0.3333333), wk =   0.0370370
        k(   62) = (  -0.3333333  -0.5000000   0.3333333), wk =   0.0370370
        k(   63) = (  -0.5000000   0.3333333   0.5000000), wk =   0.0185185
        k(   64) = (  -0.5000000   0.5000000   0.3333333), wk =   0.0185185

     Dense  grid:    38641 G-vectors     FFT dimensions: (  45,  45,  45)

     Smooth grid:    13613 G-vectors     FFT dimensions: (  30,  30,  30)

     Dynamical RAM for                 wfc:       0.31 MB

     Dynamical RAM for     wfc (w. buffer):       0.31 MB

     Dynamical RAM for           str. fact:       1.18 MB

     Dynamical RAM for           local pot:       0.00 MB

     Dynamical RAM for          nlocal pot:       0.89 MB

     Dynamical RAM for                qrad:       2.87 MB

     Dynamical RAM for          rho,v,vnew:       3.85 MB

     Dynamical RAM for           G-vectors:       2.31 MB

     Dynamical RAM for          h,s,v(r/c):       0.03 MB

     Dynamical RAM for          <psi|beta>:       0.01 MB

     Dynamical RAM for                 psi:       0.63 MB

     Dynamical RAM for                hpsi:       0.63 MB

     Dynamical RAM for                spsi:       0.63 MB

     Dynamical RAM for      wfcinit/wfcrot:       0.95 MB

     Dynamical RAM for           addusdens:     110.85 MB

     Estimated static dynamical RAM per process >      16.67 MB

     Estimated max dynamical RAM per process >     127.51 MB

     Check: negative core charge=   -0.000009

     The potential is recalculated from file :
     ./tmp/tio2.save/charge-density

     Starting wfcs are   18 randomized atomic wfcs

     Band Structure Calculation
     Davidson diagonalization with overlap

     Computing kpt #:     1  of    64
     c_bands:  1 eigenvalues not converged
     total cpu time spent up to now is        1.5 secs

     Computing kpt #:     2  of    64
     c_bands:  1 eigenvalues not converged
     total cpu time spent up to now is        2.0 secs

     Computing kpt #:     3  of    64
     total cpu time spent up to now is        2.4 secs

     Computing kpt #:     4  of    64
     total cpu time spent up to now is        3.0 secs

     Computing kpt #:     5  of    64
     total cpu time spent up to now is        3.5 secs

     Computing kpt #:     6  of    64
     total cpu time spent up to now is        4.0 secs

     Computing kpt #:     7  of    64
     total cpu time spent up to now is        4.4 secs

     Computing kpt #:     8  of    64
     total cpu time spent up to now is        4.9 secs

     Computing kpt #:     9  of    64
     total cpu time spent up to now is        5.4 secs

     Computing kpt #:    10  of    64
     total cpu time spent up to now is        5.9 secs

     Computing kpt #:    11  of    64
     total cpu time spent up to now is        6.3 secs

     Computing kpt #:    12  of    64
     total cpu time spent up to now is        6.8 secs

     Computing kpt #:    13  of    64
     total cpu time spent up to now is        7.3 secs

     Computing kpt #:    14  of    64
     c_bands:  1 eigenvalues not converged
     total cpu time spent up to now is        7.8 secs

     Computing kpt #:    15  of    64
     c_bands:  1 eigenvalues not converged
     total cpu time spent up to now is        8.3 secs

     Computing kpt #:    16  of    64
     total cpu time spent up to now is        8.8 secs

     Computing kpt #:    17  of    64
     c_bands:  1 eigenvalues not converged
     total cpu time spent up to now is        9.3 secs

     Computing kpt #:    18  of    64
     total cpu time spent up to now is        9.7 secs

     Computing kpt #:    19  of    64
     total cpu time spent up to now is       10.2 secs

     Computing kpt #:    20  of    64
     c_bands:  1 eigenvalues not converged
     total cpu time spent up to now is       10.8 secs

     Computing kpt #:    21  of    64
     total cpu time spent up to now is       11.2 secs

     Computing kpt #:    22  of    64
     total cpu time spent up to now is       11.6 secs

     Computing kpt #:    23  of    64
     total cpu time spent up to now is       12.2 secs

     Computing kpt #:    24  of    64
     total cpu time spent up to now is       12.7 secs

     Computing kpt #:    25  of    64
     total cpu time spent up to now is       13.1 secs

     Computing kpt #:    26  of    64
     total cpu time spent up to now is       13.6 secs

     Computing kpt #:    27  of    64
     total cpu time spent up to now is       14.1 secs

     Computing kpt #:    28  of    64
     total cpu time spent up to now is       14.6 secs

     Computing kpt #:    29  of    64
     total cpu time spent up to now is       15.0 secs

     Computing kpt #:    30  of    64
     total cpu time spent up to now is       15.5 secs

     Computing kpt #:    31  of    64
     c_bands:  1 eigenvalues not converged
     total cpu time spent up to now is       16.0 secs

     Computing kpt #:    32  of    64
     total cpu time spent up to now is       16.6 secs

     Computing kpt #:    33  of    64
     total cpu time spent up to now is       17.1 secs

     Computing kpt #:    34  of    64
     total cpu time spent up to now is       17.5 secs

     Computing kpt #:    35  of    64
     total cpu time spent up to now is       18.0 secs

     Computing kpt #:    36  of    64
     total cpu time spent up to now is       18.5 secs

     Computing kpt #:    37  of    64
     total cpu time spent up to now is       19.0 secs

     Computing kpt #:    38  of    64
     total cpu time spent up to now is       19.4 secs

     Computing kpt #:    39  of    64
     total cpu time spent up to now is       19.9 secs

     Computing kpt #:    40  of    64
     c_bands:  1 eigenvalues not converged
     total cpu time spent up to now is       20.4 secs

     Computing kpt #:    41  of    64
     total cpu time spent up to now is       20.9 secs

     Computing kpt #:    42  of    64
     total cpu time spent up to now is       21.5 secs

     Computing kpt #:    43  of    64
     total cpu time spent up to now is       21.9 secs

     Computing kpt #:    44  of    64
     c_bands:  2 eigenvalues not converged
     total cpu time spent up to now is       22.5 secs

     Computing kpt #:    45  of    64
     total cpu time spent up to now is       23.0 secs

     Computing kpt #:    46  of    64
     total cpu time spent up to now is       23.4 secs

     Computing kpt #:    47  of    64
     total cpu time spent up to now is       24.0 secs

     Computing kpt #:    48  of    64
     c_bands:  1 eigenvalues not converged
     total cpu time spent up to now is       24.5 secs

     Computing kpt #:    49  of    64
     c_bands:  1 eigenvalues not converged
     total cpu time spent up to now is       25.1 secs

     Computing kpt #:    50  of    64
     total cpu time spent up to now is       25.5 secs

     Computing kpt #:    51  of    64
     total cpu time spent up to now is       26.0 secs

     Computing kpt #:    52  of    64
     c_bands:  1 eigenvalues not converged
     total cpu time spent up to now is       26.5 secs

     Computing kpt #:    53  of    64
     total cpu time spent up to now is       27.0 secs

     Computing kpt #:    54  of    64
     c_bands:  1 eigenvalues not converged
     total cpu time spent up to now is       27.6 secs

     Computing kpt #:    55  of    64
     c_bands:  1 eigenvalues not converged
     total cpu time spent up to now is       28.1 secs

     Computing kpt #:    56  of    64
     total cpu time spent up to now is       28.5 secs

     Computing kpt #:    57  of    64
     c_bands:  1 eigenvalues not converged
     total cpu time spent up to now is       29.1 secs

     Computing kpt #:    58  of    64
     total cpu time spent up to now is       29.5 secs

     Computing kpt #:    59  of    64
     total cpu time spent up to now is       29.9 secs

     Computing kpt #:    60  of    64
     c_bands:  1 eigenvalues not converged
     total cpu time spent up to now is       30.4 secs

     Computing kpt #:    61  of    64
     total cpu time spent up to now is       30.9 secs

     Computing kpt #:    62  of    64
     total cpu time spent up to now is       31.4 secs

     Computing kpt #:    63  of    64
     total cpu time spent up to now is       31.8 secs

     Computing kpt #:    64  of    64
     c_bands:  1 eigenvalues not converged
     total cpu time spent up to now is       32.4 secs

     ethr =  4.17E-11,  avg # of iterations = 96.2

     total cpu time spent up to now is       32.4 secs

     End of band structure calculation

          k = 0.0000 0.0000 0.0000 (  1743 PWs)   bands (ev):

   -86.6578 -86.6086 -86.5997 -50.4462 -32.2117 -26.9695 -26.5721 -26.5720
     3.0324   5.5604   6.4323   6.7025

     occupation numbers 
     1.0000   1.0000   1.0000   1.0000   1.0000   1.0000   1.0000   1.0000
     1.0000   1.0000   1.0000   1.0000

          k = 0.0000 0.0000 0.1667 (  1739 PWs)   bands (ev):

   -86.6578 -86.6091 -86.6001 -50.4460 -32.2073 -26.9729 -26.5719 -26.5718
     3.0938   5.6166   5.7730   6.7438

     occupation numbers 
     1.0000   1.0000   1.0000   1.0000   1.0000   1.0000   1.0000   1.0000
     1.0000   1.0000   1.0000   1.0000

          k = 0.0000 0.0000 0.3333 (  1727 PWs)   bands (ev):

   -86.6573 -86.6088 -86.5998 -50.4457 -32.1987 -26.9797 -26.5713 -26.5712
     3.1919   4.9784   5.7369   6.7706

     occupation numbers 
     1.0000   1.0000   1.0000   1.0000   1.0000   1.0000   1.0000   1.0000
     1.0000   1.0000   1.0000   1.0000

          k = 0.0000 0.0000-0.5000 (  1686 PWs)   bands (ev):

   -86.6553 -86.6079 -86.5990 -50.4454 -32.1781 -26.9829 -26.5709 -26.5708
     3.2200   4.7083   5.8045   6.7838

     occupation numbers 
     1.0000   1.0000   1.0000   1.0000   1.0000   1.0000   1.0000   1.0000
     1.0000   1.0000   1.0000   1.0000

          k = 0.0000 0.1667 0.1667 (  1715 PWs)   bands (ev):

   -86.6571 -86.6080 -86.5996 -50.4457 -32.1978 -26.9725 -26.5715 -26.5700
     2.9521   4.9611   5.7640   5.9338

     occupation numbers 
     1.0000   1.0000   1.0000   1.0000   1.0000   1.0000   1.0000   1.0000
     1.0000   1.0000   1.0000   1.0000

          k = 0.0000 0.1667 0.3333 (  1711 PWs)   bands (ev):

   -86.6571 -86.6082 -86.5994 -50.4453 -32.1928 -26.9793 -26.5709 -26.5695
     3.1987   4.3640   5.8048   5.8834

     occupation numbers 
     1.0000   1.0000   1.0000   1.0000   1.0000   1.0000   1.0000   1.0000
     1.0000   1.0000   1.0000   1.0000

          k = 0.0000 0.1667-0.5000 (  1708 PWs)   bands (ev):

   -86.6564 -86.6087 -86.5992 -50.4451 -32.1900 -26.9827 -26.5706 -26.5693
     3.3439   4.0602   5.8436   5.9483

     occupation numbers 
     1.0000   1.0000   1.0000   1.0000   1.0000   1.0000   1.0000   1.0000
     1.0000   1.0000   1.0000   1.0000

          k = 0.0000 0.3333 0.3333 (  1710 PWs)   bands (ev):

   -86.6572 -86.6080 -86.5997 -50.4447 -32.1952 -26.9786 -26.5702 -26.5663
     2.8538   4.0304   5.2386   6.6285

     occupation numbers 
     1.0000   1.0000   1.0000   1.0000   1.0000   1.0000   1.0000   1.0000
     1.0000   1.0000   1.0000   1.0000

          k = 0.0000 0.3333-0.5000 (  1698 PWs)   bands (ev):

   -86.6559 -86.6079 -86.5989 -50.4445 -32.1891 -26.9819 -26.5699 -26.5659
     3.1388   3.6318   5.2982   6.6848

     occupation numbers 
     1.0000   1.0000   1.0000   1.0000   1.0000   1.0000   1.0000   1.0000
     1.0000   1.0000   1.0000   1.0000

          k = 0.0000-0.5000-0.5000 (  1692 PWs)   bands (ev):

   -86.6561 -86.6069 -86.5985 -50.4442 -32.1885 -26.9816 -26.5695 -26.5643
     2.7909   3.8046   5.0748   7.0035

     occupation numbers 
     1.0000   1.0000   1.0000   1.0000   1.0000   1.0000   1.0000   1.0000
     1.0000   1.0000   1.0000   1.0000

          k = 0.1667 0.1667 0.1667 (  1719 PWs)   bands (ev):

   -86.6575 -86.6084 -86.5994 -50.4454 -32.1999 -26.9722 -26.5761 -26.5667
     2.9276   4.7720   5.2063   6.3858

     occupation numbers 
     1.0000   1.0000   1.0000   1.0000   1.0000   1.0000   1.0000   1.0000
     1.0000   1.0000   1.0000   1.0000

          k = 0.1667 0.1667 0.3333 (  1704 PWs)   bands (ev):

   -86.6567 -86.6081 -86.5991 -50.4450 -32.1896 -26.9789 -26.5755 -26.5661
     3.2305   4.3453   5.0101   6.3702

     occupation numbers 
     1.0000   1.0000   1.0000   1.0000   1.0000   1.0000   1.0000   1.0000
     1.0000   1.0000   1.0000   1.0000

          k = 0.1667 0.1667-0.5000 (  1734 PWs)   bands (ev):

   -86.6572 -86.6094 -86.6004 -50.4449 -32.2018 -26.9824 -26.5753 -26.5659
     3.4827   3.9000   5.1562   6.3800

     occupation numbers 
     1.0000   1.0000   1.0000   1.0000   1.0000   1.0000   1.0000   1.0000
     1.0000   1.0000   1.0000   1.0000

          k = 0.1667 0.3333 0.3333 (  1711 PWs)   bands (ev):

   -86.6571 -86.6079 -86.5994 -50.4445 -32.1929 -26.9783 -26.5768 -26.5670
     3.0550   4.2053   4.8887   6.6719

     occupation numbers 
     1.0000   1.0000   1.0000   1.0000   1.0000   1.0000   1.0000   1.0000
     1.0000   1.0000   1.0000   1.0000

          k = 0.1667 0.3333-0.5000 (  1706 PWs)   bands (ev):

   -86.6563 -86.6076 -86.5992 -50.4443 -32.1895 -26.9816 -26.5765 -26.5667
     3.3491   3.8143   4.9703   6.6898

     occupation numbers 
     1.0000   1.0000   1.0000   1.0000   1.0000   1.0000   1.0000   1.0000
     1.0000   1.0000   1.0000   1.0000

          k = 0.1667-0.5000-0.5000 (  1696 PWs)   bands (ev):

   -86.6561 -86.6069 -86.5988 -50.4440 -32.1850 -26.9812 -26.5742 -26.5701
     3.0812   4.0217   4.8849   6.5850

     occupation numbers 
     1.0000   1.0000   1.0000   1.0000   1.0000   1.0000   1.0000   1.0000
     1.0000   1.0000   1.0000   1.0000

          k = 0.3333 0.3333 0.3333 (  1709 PWs)   bands (ev):

   -86.6569 -86.6077 -86.5987 -50.4440 -32.1863 -26.9776 -26.5840 -26.5746
     3.4575   4.3585   4.7536   6.6385

     occupation numbers 
     1.0000   1.0000   1.0000   1.0000   1.0000   1.0000   1.0000   1.0000
     1.0000   1.0000   1.0000   1.0000

          k = 0.3333 0.3333-0.5000 (  1706 PWs)   bands (ev):

   -86.6567 -86.6077 -86.5987 -50.4438 -32.1832 -26.9809 -26.5837 -26.5743
     3.7435   4.2912   4.5806   6.3318

     occupation numbers 
     1.0000   1.0000   1.0000   1.0000   1.0000   1.0000   1.0000   1.0000
     1.0000   1.0000   1.0000   1.0000

          k = 0.3333-0.5000-0.5000 (  1716 PWs)   bands (ev):

   -86.6571 -86.6079 -86.5995 -50.4436 -32.1844 -26.9806 -26.5835 -26.5820
     3.8358   4.5542   4.6492   6.1939

     occupation numbers 
     1.0000   1.0000   1.0000   1.0000   1.0000   1.0000   1.0000   1.0000
     1.0000   1.0000   1.0000   1.0000

          k =-0.5000-0.5000-0.5000 (  1736 PWs)   bands (ev):

   -86.6581 -86.6090 -86.6000 -50.4435 -32.1887 -26.9803 -26.5881 -26.5880
     4.4078   4.4079   5.3922   6.0525

     occupation numbers 
     1.0000   1.0000   1.0000   1.0000   1.0000   1.0000   1.0000   1.0000
     1.0000   1.0000   1.0000   1.0000

          k = 0.1667 0.0000 0.0000 (  1739 PWs)   bands (ev):

   -86.6583 -86.6091 -86.5996 -50.4459 -32.2110 -26.9692 -26.5717 -26.5705
     2.8386   5.1470   5.7080   6.4303

     occupation numbers 
     1.0000   1.0000   1.0000   1.0000   1.0000   1.0000   1.0000   1.0000
     1.0000   1.0000   1.0000   1.0000

          k = 0.0000 0.1667 0.0000 (  1739 PWs)   bands (ev):

   -86.6583 -86.6086 -86.6001 -50.4459 -32.2106 -26.9692 -26.5718 -26.5704
     2.8386   5.1477   5.7077   6.4300

     occupation numbers 
     1.0000   1.0000   1.0000   1.0000   1.0000   1.0000   1.0000   1.0000
     1.0000   1.0000   1.0000   1.0000

          k = 0.3333 0.0000 0.0000 (  1727 PWs)   bands (ev):

   -86.6579 -86.6087 -86.5992 -50.4452 -32.2087 -26.9686 -26.5709 -26.5673
     2.3286   5.0740   5.3768   6.4308

     occupation numbers 
     1.0000   1.0000   1.0000   1.0000   1.0000   1.0000   1.0000   1.0000
     1.0000   1.0000   1.0000   1.0000

          k = 0.0000 0.3333 0.0000 (  1727 PWs)   bands (ev):

   -86.6579 -86.6081 -86.5997 -50.4452 -32.2084 -26.9686 -26.5711 -26.5672
     2.3285   5.0738   5.3777   6.4309

     occupation numbers 
     1.0000   1.0000   1.0000   1.0000   1.0000   1.0000   1.0000   1.0000
     1.0000   1.0000   1.0000   1.0000

          k =-0.5000 0.0000 0.0000 (  1686 PWs)   bands (ev):

   -86.6571 -86.6079 -86.5972 -50.4448 -32.1918 -26.9682 -26.5705 -26.5656
     2.0741   4.8602   5.8587   6.3073

     occupation numbers 
     1.0000   1.0000   1.0000   1.0000   1.0000   1.0000   1.0000   1.0000
     1.0000   1.0000   1.0000   1.0000

          k = 0.0000-0.5000 0.0000 (  1686 PWs)   bands (ev):

   -86.6571 -86.6061 -86.5989 -50.4448 -32.1910 -26.9682 -26.5706 -26.5655
     2.0741   4.8601   5.8598   6.3073

     occupation numbers 
     1.0000   1.0000   1.0000   1.0000   1.0000   1.0000   1.0000   1.0000
     1.0000   1.0000   1.0000   1.0000

          k = 0.1667 0.0000-0.1667 (  1715 PWs)   bands (ev):

   -86.6571 -86.6086 -86.5990 -50.4457 -32.1981 -26.9725 -26.5714 -26.5702
     2.9521   4.9606   5.7643   5.9339

     occupation numbers 
     1.0000   1.0000   1.0000   1.0000   1.0000   1.0000   1.0000   1.0000
     1.0000   1.0000   1.0000   1.0000

          k = 0.1667-0.1667 0.0000 (  1715 PWs)   bands (ev):

   -86.6577 -86.6080 -86.5990 -50.4455 -32.1998 -26.9689 -26.5763 -26.5669
     2.8024   4.6726   5.7224   6.6404

     occupation numbers 
     1.0000   1.0000   1.0000   1.0000   1.0000   1.0000   1.0000   1.0000
     1.0000   1.0000   1.0000   1.0000

          k = 0.1667 0.0000-0.3333 (  1711 PWs)   bands (ev):

   -86.6571 -86.6083 -86.5992 -50.4453 -32.1929 -26.9793 -26.5708 -26.5696
     3.1987   4.3640   5.8043   5.8838

     occupation numbers 
     1.0000   1.0000   1.0000   1.0000   1.0000   1.0000   1.0000   1.0000
     1.0000   1.0000   1.0000   1.0000

          k = 0.3333-0.1667 0.0000 (  1711 PWs)   bands (ev):

   -86.6575 -86.6082 -86.5989 -50.4450 -32.1981 -26.9682 -26.5776 -26.5680
     2.5390   4.4342   5.8356   6.5517

     occupation numbers 
     1.0000   1.0000   1.0000   1.0000   1.0000   1.0000   1.0000   1.0000
     1.0000   1.0000   1.0000   1.0000

          k = 0.0000 0.3333 0.1667 (  1711 PWs)   bands (ev):

   -86.6573 -86.6079 -86.5994 -50.4450 -32.1993 -26.9719 -26.5707 -26.5669
     2.4819   4.8322   5.1265   6.5175

     occupation numbers 
     1.0000   1.0000   1.0000   1.0000   1.0000   1.0000   1.0000   1.0000
     1.0000   1.0000   1.0000   1.0000

          k = 0.1667 0.3333 0.0000 (  1711 PWs)   bands (ev):

   -86.6575 -86.6079 -86.5992 -50.4450 -32.1980 -26.9682 -26.5777 -26.5680
     2.5390   4.4343   5.8360   6.5517

     occupation numbers 
     1.0000   1.0000   1.0000   1.0000   1.0000   1.0000   1.0000   1.0000
     1.0000   1.0000   1.0000   1.0000

          k = 0.3333 0.0000 0.1667 (  1711 PWs)   bands (ev):

   -86.6573 -86.6083 -86.5989 -50.4450 -32.1995 -26.9719 -26.5706 -26.5670
     2.4819   4.8318   5.1267   6.5172

     occupation numbers 
     1.0000   1.0000   1.0000   1.0000   1.0000   1.0000   1.0000   1.0000
     1.0000   1.0000   1.0000   1.0000

          k = 0.1667 0.0000 0.5000 (  1708 PWs)   bands (ev):

   -86.6564 -86.6082 -86.5997 -50.4451 -32.1898 -26.9827 -26.5705 -26.5694
     3.3439   4.0603   5.8431   5.9487

     occupation numbers 
     1.0000   1.0000   1.0000   1.0000   1.0000   1.0000   1.0000   1.0000
     1.0000   1.0000   1.0000   1.0000

          k =-0.5000-0.1667 0.0000 (  1708 PWs)   bands (ev):

   -86.6574 -86.6087 -86.5983 -50.4447 -32.1970 -26.9679 -26.5752 -26.5715
     2.3580   4.4101   6.2083   6.4599

     occupation numbers 
     1.0000   1.0000   1.0000   1.0000   1.0000   1.0000   1.0000   1.0000
     1.0000   1.0000   1.0000   1.0000

          k = 0.0000-0.5000 0.1667 (  1708 PWs)   bands (ev):

   -86.6578 -86.6072 -86.5992 -50.4447 -32.1999 -26.9716 -26.5704 -26.5653
     2.2283   4.9105   4.9556   6.7053

     occupation numbers 
     1.0000   1.0000   1.0000   1.0000   1.0000   1.0000   1.0000   1.0000
     1.0000   1.0000   1.0000   1.0000

          k = 0.1667-0.5000 0.0000 (  1708 PWs)   bands (ev):

   -86.6574 -86.6072 -86.5997 -50.4447 -32.1965 -26.9679 -26.5754 -26.5714
     2.3580   4.4101   6.2090   6.4599

     occupation numbers 
     1.0000   1.0000   1.0000   1.0000   1.0000   1.0000   1.0000   1.0000
     1.0000   1.0000   1.0000   1.0000

          k =-0.5000 0.0000 0.1667 (  1708 PWs)   bands (ev):

   -86.6578 -86.6082 -86.5983 -50.4447 -32.2001 -26.9716 -26.5702 -26.5654
     2.2282   4.9106   4.9554   6.7052

     occupation numbers 
     1.0000   1.0000   1.0000   1.0000   1.0000   1.0000   1.0000   1.0000
     1.0000   1.0000   1.0000   1.0000

          k = 0.3333 0.0000-0.3333 (  1710 PWs)   bands (ev):

   -86.6572 -86.6087 -86.5990 -50.4447 -32.1955 -26.9786 -26.5701 -26.5664
     2.8538   4.0303   5.2388   6.6280

     occupation numbers 
     1.0000   1.0000   1.0000   1.0000   1.0000   1.0000   1.0000   1.0000
     1.0000   1.0000   1.0000   1.0000

          k = 0.3333-0.3333 0.0000 (  1710 PWs)   bands (ev):

   -86.6579 -86.6080 -86.5990 -50.4445 -32.1911 -26.9676 -26.5849 -26.5755
     2.9670   3.9107   6.1787   6.8068

     occupation numbers 
     1.0000   1.0000   1.0000   1.0000   1.0000   1.0000   1.0000   1.0000
     1.0000   1.0000   1.0000   1.0000

          k = 0.3333 0.0000 0.5000 (  1698 PWs)   bands (ev):

   -86.6559 -86.6078 -86.5989 -50.4445 -32.1890 -26.9819 -26.5697 -26.5660
     3.1388   3.6318   5.2984   6.6843

     occupation numbers 
     1.0000   1.0000   1.0000   1.0000   1.0000   1.0000   1.0000   1.0000
     1.0000   1.0000   1.0000   1.0000

          k =-0.5000-0.3333 0.0000 (  1698 PWs)   bands (ev):

   -86.6570 -86.6079 -86.5978 -50.4443 -32.1834 -26.9672 -26.5845 -26.5833
     3.0989   3.8690   6.5114   6.7201

     occupation numbers 
     1.0000   1.0000   1.0000   1.0000   1.0000   1.0000   1.0000   1.0000
     1.0000   1.0000   1.0000   1.0000

          k = 0.0000-0.5000 0.3333 (  1698 PWs)   bands (ev):

   -86.6571 -86.6067 -86.5989 -50.4444 -32.1925 -26.9783 -26.5698 -26.5646
     2.5820   4.1139   5.0190   6.9217

     occupation numbers 
     1.0000   1.0000   1.0000   1.0000   1.0000   1.0000   1.0000   1.0000
     1.0000   1.0000   1.0000   1.0000

          k = 0.3333-0.5000 0.0000 (  1698 PWs)   bands (ev):

   -86.6570 -86.6067 -86.5989 -50.4443 -32.1831 -26.9672 -26.5846 -26.5832
     3.0990   3.8690   6.5116   6.7201

     occupation numbers 
     1.0000   1.0000   1.0000   1.0000   1.0000   1.0000   1.0000   1.0000
     1.0000   1.0000   1.0000   1.0000

          k =-0.5000 0.0000 0.3333 (  1698 PWs)   bands (ev):

   -86.6571 -86.6078 -86.5978 -50.4444 -32.1926 -26.9783 -26.5697 -26.5647
     2.5819   4.1138   5.0192   6.9213

     occupation numbers 
     1.0000   1.0000   1.0000   1.0000   1.0000   1.0000   1.0000   1.0000
     1.0000   1.0000   1.0000   1.0000

          k =-0.5000 0.0000 0.5000 (  1692 PWs)   bands (ev):

   -86.6561 -86.6074 -86.5980 -50.4442 -32.1884 -26.9816 -26.5694 -26.5644
     2.7908   3.8046   5.0750   7.0026

     occupation numbers 
     1.0000   1.0000   1.0000   1.0000   1.0000   1.0000   1.0000   1.0000
     1.0000   1.0000   1.0000   1.0000

          k =-0.5000 0.5000 0.0000 (  1692 PWs)   bands (ev):

   -86.6566 -86.6069 -86.5980 -50.4441 -32.1761 -26.9669 -26.5892 -26.5891
     3.6634   3.6635   6.5506   6.5735

     occupation numbers 
     1.0000   1.0000   1.0000   1.0000   1.0000   1.0000   1.0000   1.0000
     1.0000   1.0000   1.0000   1.0000

          k = 0.3333-0.1667 0.1667 (  1704 PWs)   bands (ev):

   -86.6573 -86.6081 -86.5986 -50.4448 -32.1932 -26.9716 -26.5773 -26.5677
     2.6887   4.4837   5.2725   6.6120

     occupation numbers 
     1.0000   1.0000   1.0000   1.0000   1.0000   1.0000   1.0000   1.0000
     1.0000   1.0000   1.0000   1.0000

          k =-0.1667 0.3333 0.1667 (  1704 PWs)   bands (ev):

   -86.6573 -86.6075 -86.5991 -50.4448 -32.1930 -26.9716 -26.5774 -26.5676
     2.6887   4.4838   5.2725   6.6122

     occupation numbers 
     1.0000   1.0000   1.0000   1.0000   1.0000   1.0000   1.0000   1.0000
     1.0000   1.0000   1.0000   1.0000

          k =-0.5000-0.1667 0.1667 (  1734 PWs)   bands (ev):

   -86.6585 -86.6094 -86.5990 -50.4446 -32.2071 -26.9714 -26.5750 -26.5714
     2.5113   4.4439   5.3598   6.7569

     occupation numbers 
     1.0000   1.0000   1.0000   1.0000   1.0000   1.0000   1.0000   1.0000
     1.0000   1.0000   1.0000   1.0000

          k =-0.1667-0.5000 0.1667 (  1734 PWs)   bands (ev):

   -86.6585 -86.6080 -86.6004 -50.4446 -32.2067 -26.9714 -26.5751 -26.5712
     2.5114   4.4439   5.3599   6.7570

     occupation numbers 
     1.0000   1.0000   1.0000   1.0000   1.0000   1.0000   1.0000   1.0000
     1.0000   1.0000   1.0000   1.0000

          k = 0.3333 0.1667-0.3333 (  1711 PWs)   bands (ev):

   -86.6571 -86.6084 -86.5990 -50.4445 -32.1932 -26.9783 -26.5768 -26.5671
     3.0550   4.2052   4.8888   6.6717

     occupation numbers 
     1.0000   1.0000   1.0000   1.0000   1.0000   1.0000   1.0000   1.0000
     1.0000   1.0000   1.0000   1.0000

          k = 0.3333-0.3333 0.1667 (  1711 PWs)   bands (ev):

   -86.6576 -86.6079 -86.5990 -50.4444 -32.1902 -26.9710 -26.5846 -26.5752
     3.1083   4.0381   5.6601   6.6862

     occupation numbers 
     1.0000   1.0000   1.0000   1.0000   1.0000   1.0000   1.0000   1.0000
     1.0000   1.0000   1.0000   1.0000

          k = 0.3333 0.1667 0.5000 (  1706 PWs)   bands (ev):

   -86.6563 -86.6083 -86.5986 -50.4443 -32.1897 -26.9816 -26.5765 -26.5668
     3.3491   3.8143   4.9704   6.6895

     occupation numbers 
     1.0000   1.0000   1.0000   1.0000   1.0000   1.0000   1.0000   1.0000
     1.0000   1.0000   1.0000   1.0000

          k =-0.5000-0.3333 0.1667 (  1706 PWs)   bands (ev):

   -86.6574 -86.6076 -86.5982 -50.4441 -32.1853 -26.9706 -26.5842 -26.5831
     3.2472   3.9830   5.9391   6.8809

     occupation numbers 
     1.0000   1.0000   1.0000   1.0000   1.0000   1.0000   1.0000   1.0000
     1.0000   1.0000   1.0000   1.0000

          k =-0.1667-0.5000 0.3333 (  1706 PWs)   bands (ev):

   -86.6568 -86.6071 -86.5992 -50.4442 -32.1911 -26.9779 -26.5745 -26.5705
     2.8673   4.2612   4.8680   6.7562

     occupation numbers 
     1.0000   1.0000   1.0000   1.0000   1.0000   1.0000   1.0000   1.0000
     1.0000   1.0000   1.0000   1.0000

          k = 0.3333-0.5000 0.1667 (  1706 PWs)   bands (ev):

   -86.6574 -86.6071 -86.5987 -50.4441 -32.1853 -26.9706 -26.5843 -26.5829
     3.2473   3.9829   5.9391   6.8810

     occupation numbers 
     1.0000   1.0000   1.0000   1.0000   1.0000   1.0000   1.0000   1.0000
     1.0000   1.0000   1.0000   1.0000

          k =-0.5000 0.1667 0.3333 (  1706 PWs)   bands (ev):

   -86.6568 -86.6082 -86.5982 -50.4442 -32.1914 -26.9779 -26.5743 -26.5706
     2.8672   4.2611   4.8681   6.7558

     occupation numbers 
     1.0000   1.0000   1.0000   1.0000   1.0000   1.0000   1.0000   1.0000
     1.0000   1.0000   1.0000   1.0000

          k =-0.5000 0.1667 0.5000 (  1696 PWs)   bands (ev):

   -86.6561 -86.6078 -86.5980 -50.4440 -32.1852 -26.9812 -26.5740 -26.5703
     3.0811   4.0217   4.8850   6.5844

     occupation numbers 
     1.0000   1.0000   1.0000   1.0000   1.0000   1.0000   1.0000   1.0000
     1.0000   1.0000   1.0000   1.0000

          k =-0.5000 0.5000 0.1667 (  1696 PWs)   bands (ev):

   -86.6569 -86.6069 -86.5980 -50.4439 -32.1761 -26.9703 -26.5889 -26.5888
     3.8000   3.8001   6.4316   6.9107

     occupation numbers 
     1.0000   1.0000   1.0000   1.0000   1.0000   1.0000   1.0000   1.0000
     1.0000   1.0000   1.0000   1.0000

          k =-0.5000-0.3333 0.3333 (  1706 PWs)   bands (ev):

   -86.6568 -86.6077 -86.5985 -50.4438 -32.1819 -26.9772 -26.5836 -26.5824
     3.6046   4.2695   5.0997   6.4975

     occupation numbers 
     1.0000   1.0000   1.0000   1.0000   1.0000   1.0000   1.0000   1.0000
     1.0000   1.0000   1.0000   1.0000

          k =-0.3333-0.5000 0.3333 (  1706 PWs)   bands (ev):

   -86.6568 -86.6075 -86.5987 -50.4438 -32.1818 -26.9772 -26.5837 -26.5823
     3.6046   4.2694   5.0996   6.4980

     occupation numbers 
     1.0000   1.0000   1.0000   1.0000   1.0000   1.0000   1.0000   1.0000
     1.0000   1.0000   1.0000   1.0000

          k =-0.5000 0.3333 0.5000 (  1716 PWs)   bands (ev):

   -86.6571 -86.6085 -86.5989 -50.4436 -32.1847 -26.9806 -26.5833 -26.5821
     3.8357   4.5543   4.6493   6.1934

     occupation numbers 
     1.0000   1.0000   1.0000   1.0000   1.0000   1.0000   1.0000   1.0000
     1.0000   1.0000   1.0000   1.0000

          k =-0.5000 0.5000 0.3333 (  1716 PWs)   bands (ev):

   -86.6577 -86.6079 -86.5990 -50.4436 -32.1816 -26.9770 -26.5883 -26.5882
     4.1511   4.1512   5.7412   6.4148

     occupation numbers 
     1.0000   1.0000   1.0000   1.0000   1.0000   1.0000   1.0000   1.0000
     1.0000   1.0000   1.0000   1.0000

     the Fermi energy is     7.6111 ev
     (compare with:     6.7248 eV, computed in scf)

     Writing all to output data dir ./tmp/tio2.save/

     init_run     :      0.59s CPU      0.65s WALL (       1 calls)
     electrons    :     31.39s CPU     31.58s WALL (       1 calls)

     Called by init_run:
     wfcinit      :      0.00s CPU      0.00s WALL (       1 calls)
     wfcinit:atom :      0.02s CPU      0.02s WALL (      64 calls)
     wfcinit:wfcr :      0.78s CPU      0.81s WALL (      64 calls)
     potinit      :      0.17s CPU      0.18s WALL (       1 calls)
     hinit0       :      0.35s CPU      0.35s WALL (       1 calls)

     Called by electrons:
     c_bands      :     31.39s CPU     31.58s WALL (       1 calls)
     v_of_rho     :      0.04s CPU      0.04s WALL (       1 calls)
     v_h          :      0.00s CPU      0.00s WALL (       1 calls)
     v_xc         :      0.04s CPU      0.04s WALL (       1 calls)
     newd         :      0.05s CPU      0.10s WALL (       1 calls)

     Called by c_bands:
     init_us_2    :      0.02s CPU      0.02s WALL (      64 calls)
     init_us_2:cp :      0.02s CPU      0.02s WALL (      64 calls)
     cegterg      :     30.41s CPU     30.54s WALL (     329 calls)

     Called by sum_band:

     Called by *egterg:
     cdiaghg      :      0.87s CPU      0.87s WALL (    6224 calls)
     cegterg:over :      2.87s CPU      2.88s WALL (    6160 calls)
     cegterg:upda :      1.93s CPU      1.94s WALL (    6160 calls)
     cegterg:last :      5.70s CPU      5.72s WALL (    3448 calls)
     h_psi        :     16.29s CPU     16.38s WALL (    6553 calls)
     s_psi        :      2.76s CPU      2.77s WALL (    6553 calls)
     g_psi        :      0.17s CPU      0.17s WALL (    6160 calls)

     Called by h_psi:
     h_psi:calbec :      2.80s CPU      2.82s WALL (    6553 calls)
     vloc_psi     :     10.62s CPU     10.68s WALL (    6553 calls)
     add_vuspsi   :      2.78s CPU      2.79s WALL (    6553 calls)

     General routines
     calbec       :      2.79s CPU      2.81s WALL (    6553 calls)
     fft          :      0.13s CPU      0.13s WALL (      13 calls)
     ffts         :      0.13s CPU      0.13s WALL (       1 calls)
     fftw         :      8.21s CPU      8.26s WALL (   73356 calls)
     interpolate  :      0.13s CPU      0.13s WALL (       1 calls)
     davcio       :      0.02s CPU      0.04s WALL (     128 calls)

     Parallel routines

     PWSCF        :     32.12s CPU     32.50s WALL


   This run was terminated on:  23: 4: 0  17Jul2025            

=------------------------------------------------------------------------------=
   JOB DONE.
=------------------------------------------------------------------------------=
