
     Program PWSCF v.7.5 starts on 17Sep2025 at 19:33:25 

     This program is part of the open-source Quantum ESPRESSO suite
     for quantum simulation of materials; please cite
         "P. Giannozzi et al., J. Phys.:Condens. Matter 21 395502 (2009);
         "P. Giannozzi et al., J. Phys.:Condens. Matter 29 465901 (2017);
         "P. Giannozzi et al., J. Chem. Phys. 152 154105 (2020);
          URL http://www.quantum-espresso.org", 
     in publications or presentations arising from this work. More details at
     http://www.quantum-espresso.org/quote

     Parallel version (MPI & OpenMP), running on       1 processor cores
     Number of MPI processes:                 1
     Threads/MPI process:                     1

     MPI processes distributed on     1 nodes
     4250 MiB available memory on the printing compute node when the environment starts

     Reading input from TiO2.scf.E15.in

     Current dimensions of program PWSCF are:
     Max number of different atomic species (ntypx) = 10
     Max number of k-points (npk) =  40000
     Max angular momentum in pseudopotentials (lmaxx) =  4

     IMPORTANT: XC functional enforced from input :
     Exchange-correlation= PZ
                           (   1   1   0   0   0   0   0)
     Any further DFT definition will be discarded
     Please, verify this is what you really want


     Subspace diagonalization in iterative solution of the eigenvalue problem:
     a serial algorithm will be used


     G-vector sticks info
     --------------------
     sticks:   dense  smooth     PW     G-vecs:    dense   smooth      PW
     Sum         749     373    129                 9655     3385     689

     Using Slab Decomposition



     bravais-lattice index     =            6
     lattice parameter (alat)  =       8.7906  a.u.
     unit-cell volume          =     433.6888 (a.u.)^3
     number of atoms/cell      =            6
     number of atomic types    =            2
     number of electrons       =        48.00
     number of Kohn-Sham states=           24
     kinetic-energy cutoff     =      15.0000  Ry
     charge density cutoff     =     120.0000  Ry
     scf convergence threshold =      1.0E-06
     mixing beta               =       0.3000
     number of iterations used =            8  plain     mixing
     Exchange-correlation= PZ
                           (   1   1   0   0   0   0   0)

     celldm(1)=   8.790590  celldm(2)=   0.000000  celldm(3)=   0.638446
     celldm(4)=   0.000000  celldm(5)=   0.000000  celldm(6)=   0.000000

     crystal axes: (cart. coord. in units of alat)
               a(1) = (   1.000000   0.000000   0.000000 )  
               a(2) = (   0.000000   1.000000   0.000000 )  
               a(3) = (   0.000000   0.000000   0.638446 )  

     reciprocal axes: (cart. coord. in units 2 pi/alat)
               b(1) = (  1.000000  0.000000  0.000000 )  
               b(2) = (  0.000000  1.000000  0.000000 )  
               b(3) = (  0.000000  0.000000  1.566303 )  


     PseudoPot. # 1 for Ti read from file:
     /home/dean_gov/qe-pp/gbrv_lda/ti_lda_v1.4.uspp.F.UPF
     MD5 check sum: 0d9f225c038fe889ca2a701dcc8d72cb
     Pseudo is Ultrasoft + core correction, Zval = 12.0
     Generated by new atomic code, or converted to UPF format
     Using radial grid of  851 points,  6 beta functions with: 
                l(1) =   0
                l(2) =   0
                l(3) =   1
                l(4) =   1
                l(5) =   2
                l(6) =   2
     Q(r) pseudized with  6 coefficients,  rinner =    1.000   1.000   1.000
                                                       1.000   1.000

     PseudoPot. # 2 for O  read from file:
     /home/dean_gov/qe-pp/gbrv_lda/o_lda_v1.2.uspp.F.UPF
     MD5 check sum: 194b818514d2a7dbb603bb78519a4f40
     Pseudo is Ultrasoft + core correction, Zval =  6.0
     Generated by new atomic code, or converted to UPF format
     Using radial grid of  737 points,  5 beta functions with: 
                l(1) =   0
                l(2) =   0
                l(3) =   1
                l(4) =   1
                l(5) =   2
     Q(r) pseudized with  8 coefficients,  rinner =    0.900   0.900   0.900
                                                       0.900   0.900

     atomic species   valence    mass     pseudopotential
     Ti               12.00    47.86700     Ti( 1.00)
     O                 6.00    15.99900     O ( 1.00)

     16 Sym. Ops., with inversion, found ( 8 have fractional translation)



   Cartesian axes

     site n.     atom                  positions (alat units)
         1        Ti     tau(   1) = (   0.5000004   0.5000004   0.3192234  )
         2        Ti     tau(   2) = (   0.0000000   0.0000000   0.0000000  )
         3        O      tau(   3) = (   0.6950896   0.6950896   0.0000000  )
         4        O      tau(   4) = (   0.1950892   0.8049117   0.3192234  )
         5        O      tau(   5) = (   0.3049112   0.3049112   0.0000000  )
         6        O      tau(   6) = (   0.8049117   0.1950892   0.3192234  )

     number of k points=     9
                       cart. coord. in units 2pi/alat
        k(    1) = (   0.0000000   0.0000000   0.0000000), wk =   0.0555556
        k(    2) = (   0.0000000   0.0000000   0.3915758), wk =   0.1111111
        k(    3) = (   0.0000000   0.0000000  -0.7831517), wk =   0.0555556
        k(    4) = (   0.0000000   0.3333333   0.0000000), wk =   0.2222222
        k(    5) = (   0.0000000   0.3333333   0.3915758), wk =   0.4444444
        k(    6) = (   0.0000000   0.3333333  -0.7831517), wk =   0.2222222
        k(    7) = (   0.3333333   0.3333333   0.0000000), wk =   0.2222222
        k(    8) = (   0.3333333   0.3333333   0.3915758), wk =   0.4444444
        k(    9) = (   0.3333333   0.3333333  -0.7831517), wk =   0.2222222

     Dense  grid:     9655 G-vectors     FFT dimensions: (  32,  32,  20)

     Smooth grid:     3385 G-vectors     FFT dimensions: (  24,  24,  16)

     Estimated max dynamical RAM per process >      37.55 MB

     Check: negative core charge=   -0.000201

     Initial potential from superposition of free atoms

     starting charge      45.9999, renormalised to      48.0000

     negative rho (up, down):  9.045E-03 0.000E+00
     Starting wfcs are   36 randomized atomic wfcs

     total cpu time spent up to now is        1.0 secs

     per-process dynamical memory:    28.4 Mb

     Self-consistent Calculation

     iteration #  1     ecut=    15.00 Ry     beta= 0.30
     Davidson diagonalization with overlap
     ethr =  1.00E-02,  avg # of iterations =  2.0

     negative rho (up, down):  9.422E-03 0.000E+00

     total cpu time spent up to now is        1.1 secs

     total energy              =    -364.24593394 Ry
     estimated scf accuracy    <       1.39023934 Ry

     iteration #  2     ecut=    15.00 Ry     beta= 0.30
     Davidson diagonalization with overlap
     ethr =  2.90E-03,  avg # of iterations =  1.0

     negative rho (up, down):  9.924E-03 0.000E+00

     total cpu time spent up to now is        1.3 secs

     total energy              =    -364.03516260 Ry
     estimated scf accuracy    <       0.42825321 Ry

     iteration #  3     ecut=    15.00 Ry     beta= 0.30
     Davidson diagonalization with overlap
     ethr =  8.92E-04,  avg # of iterations =  3.2

     negative rho (up, down):  9.877E-03 0.000E+00

     total cpu time spent up to now is        1.5 secs

     total energy              =    -364.16592002 Ry
     estimated scf accuracy    <       0.11948913 Ry

     iteration #  4     ecut=    15.00 Ry     beta= 0.30
     Davidson diagonalization with overlap
     ethr =  2.49E-04,  avg # of iterations =  2.2

     negative rho (up, down):  9.725E-03 0.000E+00

     total cpu time spent up to now is        1.6 secs

     total energy              =    -364.18096607 Ry
     estimated scf accuracy    <       0.16206831 Ry

     iteration #  5     ecut=    15.00 Ry     beta= 0.30
     Davidson diagonalization with overlap
     ethr =  2.49E-04,  avg # of iterations =  1.7

     negative rho (up, down):  9.730E-03 0.000E+00

     total cpu time spent up to now is        1.7 secs

     total energy              =    -364.22133363 Ry
     estimated scf accuracy    <       0.22623814 Ry

     iteration #  6     ecut=    15.00 Ry     beta= 0.30
     Davidson diagonalization with overlap
     ethr =  2.49E-04,  avg # of iterations =  3.7

     negative rho (up, down):  9.721E-03 0.000E+00

     total cpu time spent up to now is        1.9 secs

     total energy              =    -364.22650893 Ry
     estimated scf accuracy    <       0.49900071 Ry

     iteration #  7     ecut=    15.00 Ry     beta= 0.30
     Davidson diagonalization with overlap
     ethr =  2.49E-04,  avg # of iterations =  1.0

     negative rho (up, down):  9.683E-03 0.000E+00

     total cpu time spent up to now is        2.1 secs

     total energy              =    -364.21232106 Ry
     estimated scf accuracy    <       0.50116708 Ry

     iteration #  8     ecut=    15.00 Ry     beta= 0.30
     Davidson diagonalization with overlap
     ethr =  2.49E-04,  avg # of iterations =  1.0

     negative rho (up, down):  9.430E-03 0.000E+00

     total cpu time spent up to now is        2.2 secs

     total energy              =    -364.11868320 Ry
     estimated scf accuracy    <       0.46211175 Ry

     iteration #  9     ecut=    15.00 Ry     beta= 0.30
     Davidson diagonalization with overlap
     ethr =  2.49E-04,  avg # of iterations =  3.1

     negative rho (up, down):  9.234E-03 0.000E+00

     total cpu time spent up to now is        2.4 secs

     total energy              =    -364.11757586 Ry
     estimated scf accuracy    <       0.10107262 Ry

     iteration # 10     ecut=    15.00 Ry     beta= 0.30
     Davidson diagonalization with overlap
     ethr =  2.11E-04,  avg # of iterations =  2.3

     negative rho (up, down):  9.280E-03 0.000E+00

     total cpu time spent up to now is        2.5 secs

     total energy              =    -364.13250212 Ry
     estimated scf accuracy    <       0.01538019 Ry

     iteration # 11     ecut=    15.00 Ry     beta= 0.30
     Davidson diagonalization with overlap
     ethr =  3.20E-05,  avg # of iterations =  2.0

     negative rho (up, down):  9.152E-03 0.000E+00

     total cpu time spent up to now is        2.7 secs

     total energy              =    -364.12174681 Ry
     estimated scf accuracy    <       0.03427035 Ry

     iteration # 12     ecut=    15.00 Ry     beta= 0.30
     Davidson diagonalization with overlap
     ethr =  3.20E-05,  avg # of iterations =  3.7

     negative rho (up, down):  9.118E-03 0.000E+00

     total cpu time spent up to now is        2.8 secs

     total energy              =    -364.12534577 Ry
     estimated scf accuracy    <       0.00170864 Ry

     iteration # 13     ecut=    15.00 Ry     beta= 0.30
     Davidson diagonalization with overlap
     ethr =  3.56E-06,  avg # of iterations =  4.2

     negative rho (up, down):  9.171E-03 0.000E+00

     total cpu time spent up to now is        3.0 secs

     total energy              =    -364.12604875 Ry
     estimated scf accuracy    <       0.00013152 Ry

     iteration # 14     ecut=    15.00 Ry     beta= 0.30
     Davidson diagonalization with overlap
     ethr =  2.74E-07,  avg # of iterations =  5.6

     negative rho (up, down):  9.150E-03 0.000E+00

     total cpu time spent up to now is        3.2 secs

     total energy              =    -364.12644855 Ry
     estimated scf accuracy    <       0.00474227 Ry

     iteration # 15     ecut=    15.00 Ry     beta= 0.30
     Davidson diagonalization with overlap
     ethr =  2.74E-07,  avg # of iterations =  3.9

     negative rho (up, down):  9.125E-03 0.000E+00

     total cpu time spent up to now is        3.4 secs

     total energy              =    -364.12607097 Ry
     estimated scf accuracy    <       0.00266652 Ry

     iteration # 16     ecut=    15.00 Ry     beta= 0.30
     Davidson diagonalization with overlap
     ethr =  2.74E-07,  avg # of iterations =  3.8

     negative rho (up, down):  9.101E-03 0.000E+00

     total cpu time spent up to now is        3.6 secs

     total energy              =    -364.12594081 Ry
     estimated scf accuracy    <       0.00103255 Ry

     iteration # 17     ecut=    15.00 Ry     beta= 0.30
     Davidson diagonalization with overlap
     ethr =  2.74E-07,  avg # of iterations =  3.1

     negative rho (up, down):  9.073E-03 0.000E+00

     total cpu time spent up to now is        3.8 secs

     total energy              =    -364.12586542 Ry
     estimated scf accuracy    <       0.00031494 Ry

     iteration # 18     ecut=    15.00 Ry     beta= 0.30
     Davidson diagonalization with overlap
     ethr =  2.74E-07,  avg # of iterations =  3.8

     negative rho (up, down):  9.066E-03 0.000E+00

     total cpu time spent up to now is        3.9 secs

     total energy              =    -364.12592266 Ry
     estimated scf accuracy    <       0.00000151 Ry

     iteration # 19     ecut=    15.00 Ry     beta= 0.30
     Davidson diagonalization with overlap
     ethr =  3.14E-09,  avg # of iterations =  4.3

     negative rho (up, down):  9.051E-03 0.000E+00

     total cpu time spent up to now is        4.1 secs

     End of self-consistent calculation

          k = 0.0000 0.0000 0.0000 (   439 PWs)   bands (ev):

   -49.9171 -49.9052 -25.7426 -25.7426 -25.3263 -25.2877 -25.2236 -25.2235
   -10.9531  -9.8900  -9.3638  -9.3638   2.7235   2.9432   3.7790   4.6269
     4.6270   6.1513   6.1514   6.7884   8.3211   8.5543   8.5543   8.6389

          k = 0.0000 0.0000 0.3916 (   431 PWs)   bands (ev):

   -49.8983 -49.8880 -25.5011 -25.4347 -25.4347 -25.4090 -25.3116 -25.3116
   -10.4276  -9.6472  -9.5294  -9.5293   3.6622   3.6907   4.5664   4.5664
     4.7103   5.5759   6.3184   6.8727   6.8727   7.6388   7.6389   8.2914

          k = 0.0000 0.0000-0.7832 (   406 PWs)   bands (ev):

   -49.8756 -49.8754 -25.5159 -25.5157 -25.1541 -25.1538 -25.1223 -25.1221
    -9.7221  -9.7220  -9.6051  -9.6051   4.2723   4.2723   5.2219   5.2219
     5.4345   5.4346   6.2695   6.2695   6.7543   6.7544   7.7108   7.7108

          k = 0.0000 0.3333 0.0000 (   429 PWs)   bands (ev):

   -49.9130 -49.9082 -25.6028 -25.4668 -25.3392 -25.3319 -25.1975 -25.1009
   -10.6246 -10.0431  -9.4982  -9.4259   3.4357   3.4637   4.7508   4.7649
     4.8012   5.7055   5.8150   6.9316   7.2650   7.5753   8.1775   8.5490

          k = 0.0000 0.3333 0.3916 (   427 PWs)   bands (ev):

   -49.8944 -49.8918 -25.6534 -25.4612 -25.3869 -25.3564 -25.3378 -25.0355
   -10.2204  -9.7673  -9.6352  -9.5699   3.9493   4.1777   4.3782   4.5188
     5.2408   5.3144   5.7750   6.6190   6.6383   7.6138   7.8223   8.3502

          k = 0.0000 0.3333-0.7832 (   418 PWs)   bands (ev):

   -49.8759 -49.8757 -25.5289 -25.5288 -25.2857 -25.2855 -25.2629 -25.2627
    -9.9253  -9.9252  -9.4155  -9.4155   4.0255   4.0255   4.6154   4.6154
     5.4501   5.4502   6.2291   6.2291   7.2130   7.2131   7.6678   7.6678

          k = 0.3333 0.3333 0.0000 (   432 PWs)   bands (ev):

   -49.9138 -49.9089 -25.5672 -25.4793 -25.4591 -25.2908 -25.2206 -25.1716
   -10.4963 -10.2036  -9.4894  -9.3931   2.9461   3.5301   4.7240   4.7592
     5.2415   5.8880   6.5026   6.9940   7.1826   7.2428   7.5425   8.3050

          k = 0.3333 0.3333 0.3916 (   425 PWs)   bands (ev):

   -49.8945 -49.8925 -25.5343 -25.4709 -25.4350 -25.3565 -25.2166 -25.1761
   -10.0889  -9.8709  -9.6119  -9.5837   3.6183   4.0547   4.1179   4.2536
     5.4391   6.0651   6.1909   6.8294   7.1759   7.4086   7.5654   8.1449

          k = 0.3333 0.3333-0.7832 (   420 PWs)   bands (ev):

   -49.8757 -49.8754 -25.6519 -25.6259 -25.3363 -25.3194 -25.1549 -25.1477
    -9.9409  -9.7703  -9.5934  -9.4162   3.8841   4.3403   4.4415   4.4667
     4.8704   5.6407   5.7747   6.1606   7.6707   7.7031   8.0015   8.1263

     highest occupied level (ev):     8.6389

!    total energy              =    -364.12592297 Ry
     estimated scf accuracy    <       0.00000081 Ry

     The total energy is the sum of the following terms:
     one-electron contribution =    -120.59125694 Ry
     hartree contribution      =      80.87735550 Ry
     xc contribution           =     -62.89826283 Ry
     ewald contribution        =    -261.51375871 Ry

     convergence has been achieved in  19 iterations

     Writing all to output data dir ./tmp/TiO2.save/ :
     XML data file, charge density, pseudopotentials, collected wavefunctions

     init_run     :      0.79s CPU      0.84s WALL (       1 calls)
     electrons    :      3.04s CPU      3.14s WALL (       1 calls)

     Called by init_run:
     wfcinit      :      0.12s CPU      0.13s WALL (       1 calls)
     potinit      :      0.17s CPU      0.17s WALL (       1 calls)
     hinit0       :      0.46s CPU      0.47s WALL (       1 calls)

     Called by electrons:
     c_bands      :      1.45s CPU      1.52s WALL (      19 calls)
     sum_band     :      0.92s CPU      0.95s WALL (      19 calls)
     v_of_rho     :      0.02s CPU      0.02s WALL (      20 calls)
     newd         :      0.66s CPU      0.70s WALL (      20 calls)
     mix_rho      :      0.01s CPU      0.01s WALL (      19 calls)

     Called by c_bands:
     init_us_2    :      0.04s CPU      0.05s WALL (     351 calls)
     cegterg      :      1.34s CPU      1.41s WALL (     171 calls)

     Called by *egterg:
     cdiaghg      :      0.25s CPU      0.26s WALL (     671 calls)
     h_psi        :      0.97s CPU      1.02s WALL (     680 calls)
     s_psi        :      0.06s CPU      0.07s WALL (     680 calls)
     g_psi        :      0.01s CPU      0.01s WALL (     500 calls)

     Called by h_psi:
     h_psi:calbec :      0.08s CPU      0.08s WALL (     680 calls)
     vloc_psi     :      0.82s CPU      0.86s WALL (     680 calls)
                                        0.00s GPU  (     680 calls)
     add_vuspsi   :      0.06s CPU      0.07s WALL (     680 calls)

     General routines
     calbec       :      0.10s CPU      0.11s WALL (     851 calls)
     fft          :      0.20s CPU      0.20s WALL (     118 calls)
     ffts         :      0.13s CPU      0.13s WALL (      39 calls)
     fftw         :      0.81s CPU      0.86s WALL (   25810 calls)
     interpolate  :      0.13s CPU      0.13s WALL (      20 calls)

     Parallel routines

     PWSCF        :      3.96s CPU      4.13s WALL


   This run was terminated on:  19:33:29  17Sep2025            

=------------------------------------------------------------------------------=
   JOB DONE.
=------------------------------------------------------------------------------=
Note: The following floating-point exceptions are signalling: IEEE_INVALID_FLAG
