
     Program PWSCF v.7.5 starts on 17Sep2025 at 19:40:14 

     This program is part of the open-source Quantum ESPRESSO suite
     for quantum simulation of materials; please cite
         "P. Giannozzi et al., J. Phys.:Condens. Matter 21 395502 (2009);
         "P. Giannozzi et al., J. Phys.:Condens. Matter 29 465901 (2017);
         "P. Giannozzi et al., J. Chem. Phys. 152 154105 (2020);
          URL http://www.quantum-espresso.org", 
     in publications or presentations arising from this work. More details at
     http://www.quantum-espresso.org/quote

     Parallel version (MPI & OpenMP), running on       1 processor cores
     Number of MPI processes:                 1
     Threads/MPI process:                     1

     MPI processes distributed on     1 nodes
     4265 MiB available memory on the printing compute node when the environment starts

     Reading input from TiO2.scf.E50.in

     Current dimensions of program PWSCF are:
     Max number of different atomic species (ntypx) = 10
     Max number of k-points (npk) =  40000
     Max angular momentum in pseudopotentials (lmaxx) =  4

     IMPORTANT: XC functional enforced from input :
     Exchange-correlation= PZ
                           (   1   1   0   0   0   0   0)
     Any further DFT definition will be discarded
     Please, verify this is what you really want


     Subspace diagonalization in iterative solution of the eigenvalue problem:
     a serial algorithm will be used


     G-vector sticks info
     --------------------
     sticks:   dense  smooth     PW     G-vecs:    dense   smooth      PW
     Sum        2449    1225    365                58531    20729    3361

     Using Slab Decomposition



     bravais-lattice index     =            6
     lattice parameter (alat)  =       8.7906  a.u.
     unit-cell volume          =     433.6888 (a.u.)^3
     number of atoms/cell      =            6
     number of atomic types    =            2
     number of electrons       =        48.00
     number of Kohn-Sham states=           24
     kinetic-energy cutoff     =      50.0000  Ry
     charge density cutoff     =     400.0000  Ry
     scf convergence threshold =      1.0E-06
     mixing beta               =       0.3000
     number of iterations used =            8  plain     mixing
     Exchange-correlation= PZ
                           (   1   1   0   0   0   0   0)

     celldm(1)=   8.790590  celldm(2)=   0.000000  celldm(3)=   0.638446
     celldm(4)=   0.000000  celldm(5)=   0.000000  celldm(6)=   0.000000

     crystal axes: (cart. coord. in units of alat)
               a(1) = (   1.000000   0.000000   0.000000 )  
               a(2) = (   0.000000   1.000000   0.000000 )  
               a(3) = (   0.000000   0.000000   0.638446 )  

     reciprocal axes: (cart. coord. in units 2 pi/alat)
               b(1) = (  1.000000  0.000000  0.000000 )  
               b(2) = (  0.000000  1.000000  0.000000 )  
               b(3) = (  0.000000  0.000000  1.566303 )  


     PseudoPot. # 1 for Ti read from file:
     /home/dean_gov/qe-pp/gbrv_lda/ti_lda_v1.4.uspp.F.UPF
     MD5 check sum: 0d9f225c038fe889ca2a701dcc8d72cb
     Pseudo is Ultrasoft + core correction, Zval = 12.0
     Generated by new atomic code, or converted to UPF format
     Using radial grid of  851 points,  6 beta functions with: 
                l(1) =   0
                l(2) =   0
                l(3) =   1
                l(4) =   1
                l(5) =   2
                l(6) =   2
     Q(r) pseudized with  6 coefficients,  rinner =    1.000   1.000   1.000
                                                       1.000   1.000

     PseudoPot. # 2 for O  read from file:
     /home/dean_gov/qe-pp/gbrv_lda/o_lda_v1.2.uspp.F.UPF
     MD5 check sum: 194b818514d2a7dbb603bb78519a4f40
     Pseudo is Ultrasoft + core correction, Zval =  6.0
     Generated by new atomic code, or converted to UPF format
     Using radial grid of  737 points,  5 beta functions with: 
                l(1) =   0
                l(2) =   0
                l(3) =   1
                l(4) =   1
                l(5) =   2
     Q(r) pseudized with  8 coefficients,  rinner =    0.900   0.900   0.900
                                                       0.900   0.900

     atomic species   valence    mass     pseudopotential
     Ti               12.00    47.86700     Ti( 1.00)
     O                 6.00    15.99900     O ( 1.00)

     16 Sym. Ops., with inversion, found ( 8 have fractional translation)



   Cartesian axes

     site n.     atom                  positions (alat units)
         1        Ti     tau(   1) = (   0.5000004   0.5000004   0.3192234  )
         2        Ti     tau(   2) = (   0.0000000   0.0000000   0.0000000  )
         3        O      tau(   3) = (   0.6950896   0.6950896   0.0000000  )
         4        O      tau(   4) = (   0.1950892   0.8049117   0.3192234  )
         5        O      tau(   5) = (   0.3049112   0.3049112   0.0000000  )
         6        O      tau(   6) = (   0.8049117   0.1950892   0.3192234  )

     number of k points=     9
                       cart. coord. in units 2pi/alat
        k(    1) = (   0.0000000   0.0000000   0.0000000), wk =   0.0555556
        k(    2) = (   0.0000000   0.0000000   0.3915758), wk =   0.1111111
        k(    3) = (   0.0000000   0.0000000  -0.7831517), wk =   0.0555556
        k(    4) = (   0.0000000   0.3333333   0.0000000), wk =   0.2222222
        k(    5) = (   0.0000000   0.3333333   0.3915758), wk =   0.4444444
        k(    6) = (   0.0000000   0.3333333  -0.7831517), wk =   0.2222222
        k(    7) = (   0.3333333   0.3333333   0.0000000), wk =   0.2222222
        k(    8) = (   0.3333333   0.3333333   0.3915758), wk =   0.4444444
        k(    9) = (   0.3333333   0.3333333  -0.7831517), wk =   0.2222222

     Dense  grid:    58531 G-vectors     FFT dimensions: (  60,  60,  36)

     Smooth grid:    20729 G-vectors     FFT dimensions: (  40,  40,  30)

     Estimated max dynamical RAM per process >     220.59 MB

     Check: negative core charge=   -0.000006

     Initial potential from superposition of free atoms

     starting charge      45.9999, renormalised to      48.0000

     negative rho (up, down):  1.246E-03 0.000E+00
     Starting wfcs are   36 randomized atomic wfcs

     total cpu time spent up to now is        2.3 secs

     per-process dynamical memory:    48.4 Mb

     Self-consistent Calculation

     iteration #  1     ecut=    50.00 Ry     beta= 0.30
     Davidson diagonalization with overlap
     ethr =  1.00E-02,  avg # of iterations =  2.0

     negative rho (up, down):  1.478E-03 0.000E+00

     total cpu time spent up to now is        3.5 secs

     total energy              =    -368.13371730 Ry
     estimated scf accuracy    <       1.24202842 Ry

     iteration #  2     ecut=    50.00 Ry     beta= 0.30
     Davidson diagonalization with overlap
     ethr =  2.59E-03,  avg # of iterations =  4.0

     negative rho (up, down):  1.313E-03 0.000E+00

     total cpu time spent up to now is        4.9 secs

     total energy              =    -368.40521415 Ry
     estimated scf accuracy    <       0.07955638 Ry

     iteration #  3     ecut=    50.00 Ry     beta= 0.30
     Davidson diagonalization with overlap
     ethr =  1.66E-04,  avg # of iterations =  4.0

     negative rho (up, down):  1.196E-03 0.000E+00

     total cpu time spent up to now is        6.2 secs

     total energy              =    -368.38901530 Ry
     estimated scf accuracy    <       0.06280160 Ry

     iteration #  4     ecut=    50.00 Ry     beta= 0.30
     Davidson diagonalization with overlap
     ethr =  1.31E-04,  avg # of iterations =  5.0

     negative rho (up, down):  1.218E-03 0.000E+00

     total cpu time spent up to now is        7.7 secs

     total energy              =    -368.38741645 Ry
     estimated scf accuracy    <       0.16031100 Ry

     iteration #  5     ecut=    50.00 Ry     beta= 0.30
     Davidson diagonalization with overlap
     ethr =  1.31E-04,  avg # of iterations =  4.4

     negative rho (up, down):  1.205E-03 0.000E+00

     total cpu time spent up to now is        9.0 secs

     total energy              =    -368.41737481 Ry
     estimated scf accuracy    <       0.00196553 Ry

     iteration #  6     ecut=    50.00 Ry     beta= 0.30
     Davidson diagonalization with overlap
     ethr =  4.09E-06,  avg # of iterations =  6.0

     negative rho (up, down):  1.182E-03 0.000E+00

     total cpu time spent up to now is       10.7 secs

     total energy              =    -368.41084116 Ry
     estimated scf accuracy    <       0.03648683 Ry

     iteration #  7     ecut=    50.00 Ry     beta= 0.30
     Davidson diagonalization with overlap
     ethr =  4.09E-06,  avg # of iterations =  5.1

     negative rho (up, down):  1.182E-03 0.000E+00

     total cpu time spent up to now is       12.2 secs

     total energy              =    -368.41617307 Ry
     estimated scf accuracy    <       0.00007008 Ry

     iteration #  8     ecut=    50.00 Ry     beta= 0.30
     Davidson diagonalization with overlap
     ethr =  1.46E-07,  avg # of iterations =  2.3

     negative rho (up, down):  1.182E-03 0.000E+00

     total cpu time spent up to now is       13.6 secs

     total energy              =    -368.41616050 Ry
     estimated scf accuracy    <       0.00005019 Ry

     iteration #  9     ecut=    50.00 Ry     beta= 0.30
     Davidson diagonalization with overlap
     ethr =  1.05E-07,  avg # of iterations =  4.9

     negative rho (up, down):  1.182E-03 0.000E+00

     total cpu time spent up to now is       14.9 secs

     total energy              =    -368.41617335 Ry
     estimated scf accuracy    <       0.00004217 Ry

     iteration # 10     ecut=    50.00 Ry     beta= 0.30
     Davidson diagonalization with overlap
     ethr =  8.78E-08,  avg # of iterations =  3.6

     negative rho (up, down):  1.182E-03 0.000E+00

     total cpu time spent up to now is       16.3 secs

     total energy              =    -368.41617871 Ry
     estimated scf accuracy    <       0.00000181 Ry

     iteration # 11     ecut=    50.00 Ry     beta= 0.30
     Davidson diagonalization with overlap
     ethr =  3.77E-09,  avg # of iterations =  4.2

     negative rho (up, down):  1.182E-03 0.000E+00

     total cpu time spent up to now is       17.6 secs

     End of self-consistent calculation

          k = 0.0000 0.0000 0.0000 (  2577 PWs)   bands (ev):

   -48.0041 -47.9888 -24.6194 -24.6193 -24.4674 -24.4673 -24.4339 -24.4022
    -9.4399  -8.2518  -7.5573  -7.5573   2.6126   3.0860   3.4847   4.6121
     4.6122   5.7754   5.7754   6.4141   7.6513   7.8792   7.8792   8.3187

          k = 0.0000 0.0000 0.3916 (  2581 PWs)   bands (ev):

   -47.9816 -47.9708 -24.6524 -24.6321 -24.5612 -24.5612 -24.4584 -24.4583
    -8.8605  -7.9658  -7.8039  -7.8039   3.4135   3.6667   4.1857   4.2846
     4.2846   5.0405   5.8818   6.5630   6.5630   6.8472   6.8473   7.8981

          k = 0.0000 0.0000-0.7832 (  2564 PWs)   bands (ev):

   -47.9559 -47.9557 -24.8583 -24.8580 -24.4813 -24.4811 -24.4705 -24.4703
    -8.0489  -8.0488  -7.9680  -7.9679   3.9212   3.9212   4.6625   4.6626
     4.7261   4.7261   5.5707   5.5707   6.0279   6.0279   6.9021   6.9021

          k = 0.0000 0.3333 0.0000 (  2600 PWs)   bands (ev):

   -48.0002 -47.9926 -24.5909 -24.5890 -24.5004 -24.4985 -24.4259 -24.4101
    -9.0805  -8.3898  -7.7798  -7.6752   3.1631   3.4018   4.2312   4.6476
     4.6611   5.3111   5.5330   6.3423   6.5167   7.1081   7.4592   7.9339

          k = 0.0000 0.3333 0.3916 (  2595 PWs)   bands (ev):

   -47.9789 -47.9734 -24.6575 -24.6459 -24.5370 -24.5319 -24.4788 -24.4753
    -8.6089  -8.0818  -7.9344  -7.8537   3.7514   4.0260   4.0645   4.1717
     4.9578   4.9684   5.2172   6.0524   6.1721   6.8366   7.1775   7.7302

          k = 0.0000 0.3333-0.7832 (  2586 PWs)   bands (ev):

   -47.9559 -47.9556 -24.8647 -24.8645 -24.4759 -24.4757 -24.4698 -24.4695
    -8.2968  -8.2968  -7.7000  -7.6999   3.4755   3.4755   4.3560   4.3560
     5.1029   5.1029   5.8041   5.8041   6.5038   6.5038   6.9773   6.9773

          k = 0.3333 0.3333 0.0000 (  2594 PWs)   bands (ev):

   -47.9983 -47.9945 -24.6279 -24.5967 -24.4943 -24.4620 -24.4219 -24.4139
    -8.9225  -8.5744  -7.7704  -7.6561   2.8625   3.3002   4.5620   4.6262
     4.6785   5.5015   6.0044   6.5547   6.7579   6.8244   7.1301   7.6466

          k = 0.3333 0.3333 0.3916 (  2585 PWs)   bands (ev):

   -47.9775 -47.9748 -24.6507 -24.6432 -24.5678 -24.5390 -24.4735 -24.4546
    -8.4646  -8.1980  -7.9245  -7.8863   3.4845   3.7876   3.9181   3.9383
     5.0833   5.5571   5.6928   6.1963   6.5583   6.6796   6.9955   7.4456

          k = 0.3333 0.3333-0.7832 (  2592 PWs)   bands (ev):

   -47.9558 -47.9556 -24.8634 -24.8586 -24.4825 -24.4762 -24.4716 -24.4705
    -8.3069  -8.1172  -7.8821  -7.6806   3.3322   3.8212   3.9420   4.1831
     4.5880   5.3031   5.5860   5.7030   6.8039   7.0075   7.2228   7.5022

     highest occupied level (ev):     8.3187

!    total energy              =    -368.41617953 Ry
     estimated scf accuracy    <       0.00000003 Ry

     The total energy is the sum of the following terms:
     one-electron contribution =    -129.55191405 Ry
     hartree contribution      =      86.91061656 Ry
     xc contribution           =     -64.26112417 Ry
     ewald contribution        =    -261.51375787 Ry

     convergence has been achieved in  11 iterations

     Writing all to output data dir ./tmp/TiO2.save/ :
     XML data file, charge density, pseudopotentials, collected wavefunctions

     init_run     :      1.75s CPU      2.08s WALL (       1 calls)
     electrons    :     11.18s CPU     15.38s WALL (       1 calls)

     Called by init_run:
     wfcinit      :      0.39s CPU      0.41s WALL (       1 calls)
     potinit      :      0.36s CPU      0.36s WALL (       1 calls)
     hinit0       :      0.80s CPU      0.83s WALL (       1 calls)

     Called by electrons:
     c_bands      :      5.74s CPU      5.84s WALL (      11 calls)
     sum_band     :      3.20s CPU      5.44s WALL (      11 calls)
     v_of_rho     :      0.12s CPU      0.12s WALL (      12 calls)
     newd         :      2.26s CPU      4.36s WALL (      12 calls)
     mix_rho      :      0.04s CPU      0.05s WALL (      11 calls)

     Called by c_bands:
     init_us_2    :      0.26s CPU      0.27s WALL (     207 calls)
     cegterg      :      5.31s CPU      5.38s WALL (      99 calls)

     Called by *egterg:
     cdiaghg      :      0.22s CPU      0.23s WALL (     509 calls)
     h_psi        :      4.10s CPU      4.16s WALL (     518 calls)
     s_psi        :      0.34s CPU      0.35s WALL (     518 calls)
     g_psi        :      0.04s CPU      0.04s WALL (     410 calls)

     Called by h_psi:
     h_psi:calbec :      0.40s CPU      0.40s WALL (     518 calls)
     vloc_psi     :      3.34s CPU      3.39s WALL (     518 calls)
                                        0.00s GPU  (     518 calls)
     add_vuspsi   :      0.33s CPU      0.34s WALL (     518 calls)

     General routines
     calbec       :      0.49s CPU      0.50s WALL (     617 calls)
     fft          :      0.41s CPU      0.42s WALL (      70 calls)
     ffts         :      0.26s CPU      0.26s WALL (      23 calls)
     fftw         :      3.27s CPU      3.32s WALL (   18220 calls)
     interpolate  :      0.27s CPU      0.27s WALL (      12 calls)

     Parallel routines

     PWSCF        :     13.05s CPU     17.68s WALL


   This run was terminated on:  19:40:32  17Sep2025            

=------------------------------------------------------------------------------=
   JOB DONE.
=------------------------------------------------------------------------------=
Note: The following floating-point exceptions are signalling: IEEE_INVALID_FLAG
