
     Program PWSCF v.7.5 starts on 17Sep2025 at 20:56:40 

     This program is part of the open-source Quantum ESPRESSO suite
     for quantum simulation of materials; please cite
         "P. Giannozzi et al., J. Phys.:Condens. Matter 21 395502 (2009);
         "P. Giannozzi et al., J. Phys.:Condens. Matter 29 465901 (2017);
         "P. Giannozzi et al., J. Chem. Phys. 152 154105 (2020);
          URL http://www.quantum-espresso.org", 
     in publications or presentations arising from this work. More details at
     http://www.quantum-espresso.org/quote

     Parallel version (MPI & OpenMP), running on      16 processor cores
     Number of MPI processes:                 1
     Threads/MPI process:                    16

     MPI processes distributed on     1 nodes
     4230 MiB available memory on the printing compute node when the environment starts

     Reading input from TiO2.bands.in

     Current dimensions of program PWSCF are:
     Max number of different atomic species (ntypx) = 10
     Max number of k-points (npk) =  40000
     Max angular momentum in pseudopotentials (lmaxx) =  4

     IMPORTANT: XC functional enforced from input :
     Exchange-correlation= PZ
                           (   1   1   0   0   0   0   0)
     Any further DFT definition will be discarded
     Please, verify this is what you really want


     Atomic positions and unit cell read from directory:
     ./tmp/TiO2.save/


     Subspace diagonalization in iterative solution of the eigenvalue problem:
     a serial algorithm will be used


     G-vector sticks info
     --------------------
     sticks:   dense  smooth     PW     G-vecs:    dense   smooth      PW
     Sum        1885     949    293                39459    13955    2449

     Using Slab Decomposition



     bravais-lattice index     =            0
     lattice parameter (alat)  =       8.5989  a.u.
     unit-cell volume          =     408.5873 (a.u.)^3
     number of atoms/cell      =            6
     number of atomic types    =            2
     number of electrons       =        48.00
     number of Kohn-Sham states=           50
     kinetic-energy cutoff     =      40.0000  Ry
     charge density cutoff     =     320.0000  Ry
     Exchange-correlation= PZ
                           (   1   1   0   0   0   0   0)

     celldm(1)=   8.598882  celldm(2)=   0.000000  celldm(3)=   0.000000
     celldm(4)=   0.000000  celldm(5)=   0.000000  celldm(6)=   0.000000

     crystal axes: (cart. coord. in units of alat)
               a(1) = (   1.000000   0.000000   0.000000 )  
               a(2) = (   0.000000   1.000000   0.000000 )  
               a(3) = (   0.000000   0.000000   0.642627 )  

     reciprocal axes: (cart. coord. in units 2 pi/alat)
               b(1) = (  1.000000  0.000000  0.000000 )  
               b(2) = (  0.000000  1.000000  0.000000 )  
               b(3) = (  0.000000  0.000000  1.556113 )  


     PseudoPot. # 1 for Ti read from file:
     /home/dean_gov/qe-pp/gbrv_lda/ti_lda_v1.4.uspp.F.UPF
     MD5 check sum: 0d9f225c038fe889ca2a701dcc8d72cb
     Pseudo is Ultrasoft + core correction, Zval = 12.0
     Generated by new atomic code, or converted to UPF format
     Using radial grid of  851 points,  6 beta functions with: 
                l(1) =   0
                l(2) =   0
                l(3) =   1
                l(4) =   1
                l(5) =   2
                l(6) =   2
     Q(r) pseudized with  6 coefficients,  rinner =    1.000   1.000   1.000
                                                       1.000   1.000

     PseudoPot. # 2 for O  read from file:
     /home/dean_gov/qe-pp/gbrv_lda/o_lda_v1.2.uspp.F.UPF
     MD5 check sum: 194b818514d2a7dbb603bb78519a4f40
     Pseudo is Ultrasoft + core correction, Zval =  6.0
     Generated by new atomic code, or converted to UPF format
     Using radial grid of  737 points,  5 beta functions with: 
                l(1) =   0
                l(2) =   0
                l(3) =   1
                l(4) =   1
                l(5) =   2
     Q(r) pseudized with  8 coefficients,  rinner =    0.900   0.900   0.900
                                                       0.900   0.900

     atomic species   valence    mass     pseudopotential
     Ti               12.00    47.86700     Ti( 1.00)
     O                 6.00    15.99900     O ( 1.00)

     No symmetry found



   Cartesian axes

     site n.     atom                  positions (alat units)
         1        Ti     tau(   1) = (   0.5000004   0.5000004   0.3213138  )
         2        Ti     tau(   2) = (   0.0000000   0.0000000   0.0000000  )
         3        O      tau(   3) = (   0.6960619   0.6960619  -0.0000000  )
         4        O      tau(   4) = (   0.1960615   0.8039394   0.3213138  )
         5        O      tau(   5) = (   0.3039390   0.3039390  -0.0000000  )
         6        O      tau(   6) = (   0.8039394   0.1960615   0.3213138  )

     number of k points=   141

     Number of k-points >= 100: set verbosity='high' to print them.

     Dense  grid:    39459 G-vectors     FFT dimensions: (  50,  50,  32)

     Smooth grid:    13955 G-vectors     FFT dimensions: (  36,  36,  24)

     Estimated max dynamical RAM per process >     133.01 MB

     Check: negative core charge=   -0.000013

     The potential is recalculated from file :
     ./tmp/TiO2.save/charge-density


     negative rho (up, down):  1.848E-03 0.000E+00
     Starting wfcs are   36 randomized atomic wfcs +   14 random wfcs

     Band Structure Calculation
     Davidson diagonalization with overlap

     ethr =  2.08E-09,  avg # of iterations = 19.5

     total cpu time spent up to now is      974.7 secs

     End of band structure calculation

     Number of k-points >= 100: set verbosity='high' to print the bands.

     Writing all to output data dir ./tmp/TiO2.save/ :
     XML data file, pseudopotentials, collected wavefunctions

     init_run     :      8.13s CPU      1.54s WALL (       1 calls)
     electrons    :  15493.03s CPU    973.03s WALL (       1 calls)

     Called by init_run:
     wfcinit      :      0.00s CPU      0.00s WALL (       1 calls)
     potinit      :      2.16s CPU      0.35s WALL (       1 calls)
     hinit0       :      3.53s CPU      0.82s WALL (       1 calls)

     Called by electrons:
     c_bands      :  15493.03s CPU    973.03s WALL (       1 calls)
     v_of_rho     :      0.06s CPU      0.01s WALL (       1 calls)
     newd         :      2.41s CPU      0.34s WALL (       1 calls)

     Called by c_bands:
     init_us_2    :      2.22s CPU      0.16s WALL (     141 calls)
     cegterg      :  14627.38s CPU    918.41s WALL (     187 calls)

     Called by *egterg:
     cdiaghg      :    523.89s CPU     35.86s WALL (    2893 calls)
     h_psi        :  12022.46s CPU    756.54s WALL (    3080 calls)
     s_psi        :    490.05s CPU     31.65s WALL (    3080 calls)
     g_psi        :      5.09s CPU      0.45s WALL (    2752 calls)

     Called by h_psi:
     h_psi:calbec :    515.27s CPU     28.16s WALL (    3080 calls)
     vloc_psi     :  10455.72s CPU    662.55s WALL (    3080 calls)
                                        0.00s GPU  (    3080 calls)
     add_vuspsi   :    306.20s CPU     19.79s WALL (    3080 calls)

     General routines
     calbec       :    514.73s CPU     28.14s WALL (    3080 calls)
     fft          :      2.89s CPU      0.37s WALL (       6 calls)
     ffts         :      1.98s CPU      0.34s WALL (       1 calls)
     fftw         :   9621.07s CPU    610.56s WALL (  154816 calls)
     interpolate  :      2.03s CPU      0.34s WALL (       1 calls)
     davcio       :      7.37s CPU      0.50s WALL (     282 calls)

     Parallel routines

     PWSCF        :      4h18m CPU  16m15.84s WALL


   This run was terminated on:  21:12:56  17Sep2025            

=------------------------------------------------------------------------------=
   JOB DONE.
=------------------------------------------------------------------------------=
Note: The following floating-point exceptions are signalling: IEEE_INVALID_FLAG
