
     Program PWSCF v.7.5 starts on 17Sep2025 at 19:36:10 

     This program is part of the open-source Quantum ESPRESSO suite
     for quantum simulation of materials; please cite
         "P. Giannozzi et al., J. Phys.:Condens. Matter 21 395502 (2009);
         "P. Giannozzi et al., J. Phys.:Condens. Matter 29 465901 (2017);
         "P. Giannozzi et al., J. Chem. Phys. 152 154105 (2020);
          URL http://www.quantum-espresso.org", 
     in publications or presentations arising from this work. More details at
     http://www.quantum-espresso.org/quote

     Parallel version (MPI & OpenMP), running on       1 processor cores
     Number of MPI processes:                 1
     Threads/MPI process:                     1

     MPI processes distributed on     1 nodes
     4263 MiB available memory on the printing compute node when the environment starts

     Reading input from TiO2.scf.E20.in

     Current dimensions of program PWSCF are:
     Max number of different atomic species (ntypx) = 10
     Max number of k-points (npk) =  40000
     Max angular momentum in pseudopotentials (lmaxx) =  4

     IMPORTANT: XC functional enforced from input :
     Exchange-correlation= PZ
                           (   1   1   0   0   0   0   0)
     Any further DFT definition will be discarded
     Please, verify this is what you really want


     Subspace diagonalization in iterative solution of the eigenvalue problem:
     a serial algorithm will be used


     G-vector sticks info
     --------------------
     sticks:   dense  smooth     PW     G-vecs:    dense   smooth      PW
     Sum         981     489    161                14763     5239     993

     Using Slab Decomposition



     bravais-lattice index     =            6
     lattice parameter (alat)  =       8.7906  a.u.
     unit-cell volume          =     433.6888 (a.u.)^3
     number of atoms/cell      =            6
     number of atomic types    =            2
     number of electrons       =        48.00
     number of Kohn-Sham states=           24
     kinetic-energy cutoff     =      20.0000  Ry
     charge density cutoff     =     160.0000  Ry
     scf convergence threshold =      1.0E-06
     mixing beta               =       0.3000
     number of iterations used =            8  plain     mixing
     Exchange-correlation= PZ
                           (   1   1   0   0   0   0   0)

     celldm(1)=   8.790590  celldm(2)=   0.000000  celldm(3)=   0.638446
     celldm(4)=   0.000000  celldm(5)=   0.000000  celldm(6)=   0.000000

     crystal axes: (cart. coord. in units of alat)
               a(1) = (   1.000000   0.000000   0.000000 )  
               a(2) = (   0.000000   1.000000   0.000000 )  
               a(3) = (   0.000000   0.000000   0.638446 )  

     reciprocal axes: (cart. coord. in units 2 pi/alat)
               b(1) = (  1.000000  0.000000  0.000000 )  
               b(2) = (  0.000000  1.000000  0.000000 )  
               b(3) = (  0.000000  0.000000  1.566303 )  


     PseudoPot. # 1 for Ti read from file:
     /home/dean_gov/qe-pp/gbrv_lda/ti_lda_v1.4.uspp.F.UPF
     MD5 check sum: 0d9f225c038fe889ca2a701dcc8d72cb
     Pseudo is Ultrasoft + core correction, Zval = 12.0
     Generated by new atomic code, or converted to UPF format
     Using radial grid of  851 points,  6 beta functions with: 
                l(1) =   0
                l(2) =   0
                l(3) =   1
                l(4) =   1
                l(5) =   2
                l(6) =   2
     Q(r) pseudized with  6 coefficients,  rinner =    1.000   1.000   1.000
                                                       1.000   1.000

     PseudoPot. # 2 for O  read from file:
     /home/dean_gov/qe-pp/gbrv_lda/o_lda_v1.2.uspp.F.UPF
     MD5 check sum: 194b818514d2a7dbb603bb78519a4f40
     Pseudo is Ultrasoft + core correction, Zval =  6.0
     Generated by new atomic code, or converted to UPF format
     Using radial grid of  737 points,  5 beta functions with: 
                l(1) =   0
                l(2) =   0
                l(3) =   1
                l(4) =   1
                l(5) =   2
     Q(r) pseudized with  8 coefficients,  rinner =    0.900   0.900   0.900
                                                       0.900   0.900

     atomic species   valence    mass     pseudopotential
     Ti               12.00    47.86700     Ti( 1.00)
     O                 6.00    15.99900     O ( 1.00)

     16 Sym. Ops., with inversion, found ( 8 have fractional translation)



   Cartesian axes

     site n.     atom                  positions (alat units)
         1        Ti     tau(   1) = (   0.5000004   0.5000004   0.3192234  )
         2        Ti     tau(   2) = (   0.0000000   0.0000000   0.0000000  )
         3        O      tau(   3) = (   0.6950896   0.6950896   0.0000000  )
         4        O      tau(   4) = (   0.1950892   0.8049117   0.3192234  )
         5        O      tau(   5) = (   0.3049112   0.3049112   0.0000000  )
         6        O      tau(   6) = (   0.8049117   0.1950892   0.3192234  )

     number of k points=     9
                       cart. coord. in units 2pi/alat
        k(    1) = (   0.0000000   0.0000000   0.0000000), wk =   0.0555556
        k(    2) = (   0.0000000   0.0000000   0.3915758), wk =   0.1111111
        k(    3) = (   0.0000000   0.0000000  -0.7831517), wk =   0.0555556
        k(    4) = (   0.0000000   0.3333333   0.0000000), wk =   0.2222222
        k(    5) = (   0.0000000   0.3333333   0.3915758), wk =   0.4444444
        k(    6) = (   0.0000000   0.3333333  -0.7831517), wk =   0.2222222
        k(    7) = (   0.3333333   0.3333333   0.0000000), wk =   0.2222222
        k(    8) = (   0.3333333   0.3333333   0.3915758), wk =   0.4444444
        k(    9) = (   0.3333333   0.3333333  -0.7831517), wk =   0.2222222

     Dense  grid:    14763 G-vectors     FFT dimensions: (  36,  36,  24)

     Smooth grid:     5239 G-vectors     FFT dimensions: (  30,  30,  16)

     Estimated max dynamical RAM per process >      56.76 MB

     Check: negative core charge=   -0.000018

     Initial potential from superposition of free atoms

     starting charge      45.9999, renormalised to      48.0000

     negative rho (up, down):  4.936E-03 0.000E+00
     Starting wfcs are   36 randomized atomic wfcs

     total cpu time spent up to now is        1.2 secs

     per-process dynamical memory:    19.4 Mb

     Self-consistent Calculation

     iteration #  1     ecut=    20.00 Ry     beta= 0.30
     Davidson diagonalization with overlap
     ethr =  1.00E-02,  avg # of iterations =  2.0

     negative rho (up, down):  5.287E-03 0.000E+00

     total cpu time spent up to now is        1.5 secs

     total energy              =    -367.19975270 Ry
     estimated scf accuracy    <       0.97008176 Ry

     iteration #  2     ecut=    20.00 Ry     beta= 0.30
     Davidson diagonalization with overlap
     ethr =  2.02E-03,  avg # of iterations =  2.8

     negative rho (up, down):  5.209E-03 0.000E+00

     total cpu time spent up to now is        1.8 secs

     total energy              =    -367.31365727 Ry
     estimated scf accuracy    <       0.12868188 Ry

     iteration #  3     ecut=    20.00 Ry     beta= 0.30
     Davidson diagonalization with overlap
     ethr =  2.68E-04,  avg # of iterations =  3.6

     negative rho (up, down):  4.846E-03 0.000E+00

     total cpu time spent up to now is        2.1 secs

     total energy              =    -367.30889292 Ry
     estimated scf accuracy    <       0.04872208 Ry

     iteration #  4     ecut=    20.00 Ry     beta= 0.30
     Davidson diagonalization with overlap
     ethr =  1.02E-04,  avg # of iterations =  3.9

     negative rho (up, down):  4.809E-03 0.000E+00

     total cpu time spent up to now is        2.4 secs

     total energy              =    -367.31006165 Ry
     estimated scf accuracy    <       0.02100859 Ry

     iteration #  5     ecut=    20.00 Ry     beta= 0.30
     Davidson diagonalization with overlap
     ethr =  4.38E-05,  avg # of iterations =  5.0

     negative rho (up, down):  4.620E-03 0.000E+00

     total cpu time spent up to now is        2.8 secs

     total energy              =    -367.31136305 Ry
     estimated scf accuracy    <       0.02792705 Ry

     iteration #  6     ecut=    20.00 Ry     beta= 0.30
     Davidson diagonalization with overlap
     ethr =  4.38E-05,  avg # of iterations =  4.1

     negative rho (up, down):  4.615E-03 0.000E+00

     total cpu time spent up to now is        3.1 secs

     total energy              =    -367.31706204 Ry
     estimated scf accuracy    <       0.00033454 Ry

     iteration #  7     ecut=    20.00 Ry     beta= 0.30
     Davidson diagonalization with overlap
     ethr =  6.97E-07,  avg # of iterations =  4.1

     negative rho (up, down):  4.627E-03 0.000E+00

     total cpu time spent up to now is        3.5 secs

     total energy              =    -367.31697591 Ry
     estimated scf accuracy    <       0.00087033 Ry

     iteration #  8     ecut=    20.00 Ry     beta= 0.30
     Davidson diagonalization with overlap
     ethr =  6.97E-07,  avg # of iterations =  4.0

     negative rho (up, down):  4.634E-03 0.000E+00

     total cpu time spent up to now is        3.8 secs

     total energy              =    -367.31706172 Ry
     estimated scf accuracy    <       0.00003564 Ry

     iteration #  9     ecut=    20.00 Ry     beta= 0.30
     Davidson diagonalization with overlap
     ethr =  7.43E-08,  avg # of iterations =  4.0

     negative rho (up, down):  4.638E-03 0.000E+00

     total cpu time spent up to now is        4.1 secs

     total energy              =    -367.31707020 Ry
     estimated scf accuracy    <       0.00000155 Ry

     iteration # 10     ecut=    20.00 Ry     beta= 0.30
     Davidson diagonalization with overlap
     ethr =  3.23E-09,  avg # of iterations =  4.2

     negative rho (up, down):  4.645E-03 0.000E+00

     total cpu time spent up to now is        4.4 secs

     End of self-consistent calculation

          k = 0.0000 0.0000 0.0000 (   655 PWs)   bands (ev):

   -48.4103 -48.3968 -24.9433 -24.9433 -24.7542 -24.7541 -24.7129 -24.7058
    -9.8680  -8.7196  -8.0669  -8.0668   2.6977   3.3244   3.6151   4.8189
     4.8190   5.8507   5.8507   6.5117   7.8740   7.9221   7.9221   8.4277

          k = 0.0000 0.0000 0.3916 (   664 PWs)   bands (ev):

   -48.3894 -48.3795 -24.9499 -24.9466 -24.8778 -24.8778 -24.7561 -24.7561
    -9.3136  -8.4503  -8.3006  -8.3005   3.4974   3.8688   4.3396   4.3832
     4.3832   5.0839   5.8842   6.6150   6.6150   6.8810   6.8810   8.0997

          k = 0.0000 0.0000-0.7832 (   640 PWs)   bands (ev):

   -48.3635 -48.3633 -25.1425 -25.1423 -24.7637 -24.7634 -24.7508 -24.7506
    -8.5245  -8.5244  -8.4584  -8.4584   4.0835   4.0836   4.8571   4.8572
     4.8707   4.8708   5.7448   5.7449   6.3354   6.3354   7.0171   7.0171

          k = 0.0000 0.3333 0.0000 (   648 PWs)   bands (ev):

   -48.4066 -48.4000 -24.9084 -24.8990 -24.7991 -24.7929 -24.7037 -24.6897
    -9.5211  -8.8536  -8.2734  -8.1783   3.2496   3.5512   4.3490   4.8422
     4.9255   5.4253   5.6375   6.4282   6.7271   7.3020   7.5314   8.0562

          k = 0.0000 0.3333 0.3916 (   655 PWs)   bands (ev):

   -48.3863 -48.3818 -24.9557 -24.9385 -24.8430 -24.8315 -24.7830 -24.7705
    -9.0688  -8.5625  -8.4220  -8.3431   3.9189   4.1348   4.2091   4.3562
     5.0472   5.0674   5.3540   6.1553   6.2749   6.9046   7.2728   7.8607

          k = 0.0000 0.3333-0.7832 (   664 PWs)   bands (ev):

   -48.3648 -48.3646 -25.1600 -25.1598 -24.7886 -24.7884 -24.7758 -24.7755
    -8.7636  -8.7635  -8.2051  -8.2050   3.5879   3.5879   4.4659   4.4659
     5.1525   5.1525   5.8579   5.8579   6.5848   6.5848   7.0540   7.0540

          k = 0.3333 0.3333 0.0000 (   643 PWs)   bands (ev):

   -48.4051 -48.4006 -24.9266 -24.9083 -24.7873 -24.7735 -24.7048 -24.6958
    -9.3685  -9.0336  -8.2642  -8.1568   3.0567   3.4514   4.8108   4.8110
     4.8520   5.5931   6.0601   6.6801   6.9174   6.9298   7.2852   7.7561

          k = 0.3333 0.3333 0.3916 (   655 PWs)   bands (ev):

   -48.3853 -48.3826 -24.9483 -24.9376 -24.8708 -24.8465 -24.7733 -24.7546
    -8.9310  -8.6754  -8.4103  -8.3750   3.6282   3.9102   4.0102   4.0853
     5.2062   5.6658   5.7756   6.2856   6.6445   6.7509   7.1150   7.5829

          k = 0.3333 0.3333-0.7832 (   660 PWs)   bands (ev):

   -48.3644 -48.3644 -25.1647 -25.1626 -24.7957 -24.7755 -24.7702 -24.7581
    -8.7702  -8.5929  -8.3772  -8.1862   3.4293   3.9229   4.0003   4.2805
     4.7647   5.3871   5.6867   5.8016   6.9321   7.0634   7.2748   7.5907

     highest occupied level (ev):     8.4277

!    total energy              =    -367.31707093 Ry
     estimated scf accuracy    <       0.00000017 Ry

     The total energy is the sum of the following terms:
     one-electron contribution =    -127.19318244 Ry
     hartree contribution      =      85.27768431 Ry
     xc contribution           =     -63.88781492 Ry
     ewald contribution        =    -261.51375789 Ry

     convergence has been achieved in  10 iterations

     Writing all to output data dir ./tmp/TiO2.save/ :
     XML data file, charge density, pseudopotentials, collected wavefunctions

     init_run     :      0.81s CPU      0.98s WALL (       1 calls)
     electrons    :      2.62s CPU      3.32s WALL (       1 calls)

     Called by init_run:
     wfcinit      :      0.13s CPU      0.17s WALL (       1 calls)
     potinit      :      0.14s CPU      0.14s WALL (       1 calls)
     hinit0       :      0.49s CPU      0.53s WALL (       1 calls)

     Called by electrons:
     c_bands      :      1.35s CPU      1.41s WALL (      10 calls)
     sum_band     :      0.74s CPU      1.05s WALL (      10 calls)
     v_of_rho     :      0.02s CPU      0.02s WALL (      11 calls)
     newd         :      0.55s CPU      0.92s WALL (      11 calls)
     mix_rho      :      0.01s CPU      0.02s WALL (      10 calls)

     Called by c_bands:
     init_us_2    :      0.04s CPU      0.04s WALL (     189 calls)
     cegterg      :      1.27s CPU      1.32s WALL (      90 calls)

     Called by *egterg:
     cdiaghg      :      0.17s CPU      0.19s WALL (     429 calls)
     h_psi        :      0.98s CPU      1.04s WALL (     438 calls)
     s_psi        :      0.06s CPU      0.06s WALL (     438 calls)
     g_psi        :      0.01s CPU      0.01s WALL (     339 calls)

     Called by h_psi:
     h_psi:calbec :      0.08s CPU      0.10s WALL (     438 calls)
     vloc_psi     :      0.83s CPU      0.87s WALL (     438 calls)
                                        0.00s GPU  (     438 calls)
     add_vuspsi   :      0.06s CPU      0.06s WALL (     438 calls)

     General routines
     calbec       :      0.10s CPU      0.12s WALL (     528 calls)
     fft          :      0.25s CPU      0.26s WALL (      64 calls)
     ffts         :      0.12s CPU      0.12s WALL (      21 calls)
     fftw         :      0.83s CPU      0.86s WALL (   15004 calls)
     interpolate  :      0.12s CPU      0.12s WALL (      11 calls)

     Parallel routines

     PWSCF        :      3.55s CPU      4.67s WALL


   This run was terminated on:  19:36:15  17Sep2025            

=------------------------------------------------------------------------------=
   JOB DONE.
=------------------------------------------------------------------------------=
Note: The following floating-point exceptions are signalling: IEEE_INVALID_FLAG
