
     Program PWSCF v.7.5 starts on 17Sep2025 at 19:37:37 

     This program is part of the open-source Quantum ESPRESSO suite
     for quantum simulation of materials; please cite
         "P. Giannozzi et al., J. Phys.:Condens. Matter 21 395502 (2009);
         "P. Giannozzi et al., J. Phys.:Condens. Matter 29 465901 (2017);
         "P. Giannozzi et al., J. Chem. Phys. 152 154105 (2020);
          URL http://www.quantum-espresso.org", 
     in publications or presentations arising from this work. More details at
     http://www.quantum-espresso.org/quote

     Parallel version (MPI & OpenMP), running on       1 processor cores
     Number of MPI processes:                 1
     Threads/MPI process:                     1

     MPI processes distributed on     1 nodes
     4264 MiB available memory on the printing compute node when the environment starts

     Reading input from TiO2.scf.E30.in

     Current dimensions of program PWSCF are:
     Max number of different atomic species (ntypx) = 10
     Max number of k-points (npk) =  40000
     Max angular momentum in pseudopotentials (lmaxx) =  4

     IMPORTANT: XC functional enforced from input :
     Exchange-correlation= PZ
                           (   1   1   0   0   0   0   0)
     Any further DFT definition will be discarded
     Please, verify this is what you really want


     Subspace diagonalization in iterative solution of the eigenvalue problem:
     a serial algorithm will be used


     G-vector sticks info
     --------------------
     sticks:   dense  smooth     PW     G-vecs:    dense   smooth      PW
     Sum        1481     749    233                27227     9655    1675

     Using Slab Decomposition



     bravais-lattice index     =            6
     lattice parameter (alat)  =       8.7906  a.u.
     unit-cell volume          =     433.6888 (a.u.)^3
     number of atoms/cell      =            6
     number of atomic types    =            2
     number of electrons       =        48.00
     number of Kohn-Sham states=           24
     kinetic-energy cutoff     =      30.0000  Ry
     charge density cutoff     =     240.0000  Ry
     scf convergence threshold =      1.0E-06
     mixing beta               =       0.3000
     number of iterations used =            8  plain     mixing
     Exchange-correlation= PZ
                           (   1   1   0   0   0   0   0)

     celldm(1)=   8.790590  celldm(2)=   0.000000  celldm(3)=   0.638446
     celldm(4)=   0.000000  celldm(5)=   0.000000  celldm(6)=   0.000000

     crystal axes: (cart. coord. in units of alat)
               a(1) = (   1.000000   0.000000   0.000000 )  
               a(2) = (   0.000000   1.000000   0.000000 )  
               a(3) = (   0.000000   0.000000   0.638446 )  

     reciprocal axes: (cart. coord. in units 2 pi/alat)
               b(1) = (  1.000000  0.000000  0.000000 )  
               b(2) = (  0.000000  1.000000  0.000000 )  
               b(3) = (  0.000000  0.000000  1.566303 )  


     PseudoPot. # 1 for Ti read from file:
     /home/dean_gov/qe-pp/gbrv_lda/ti_lda_v1.4.uspp.F.UPF
     MD5 check sum: 0d9f225c038fe889ca2a701dcc8d72cb
     Pseudo is Ultrasoft + core correction, Zval = 12.0
     Generated by new atomic code, or converted to UPF format
     Using radial grid of  851 points,  6 beta functions with: 
                l(1) =   0
                l(2) =   0
                l(3) =   1
                l(4) =   1
                l(5) =   2
                l(6) =   2
     Q(r) pseudized with  6 coefficients,  rinner =    1.000   1.000   1.000
                                                       1.000   1.000

     PseudoPot. # 2 for O  read from file:
     /home/dean_gov/qe-pp/gbrv_lda/o_lda_v1.2.uspp.F.UPF
     MD5 check sum: 194b818514d2a7dbb603bb78519a4f40
     Pseudo is Ultrasoft + core correction, Zval =  6.0
     Generated by new atomic code, or converted to UPF format
     Using radial grid of  737 points,  5 beta functions with: 
                l(1) =   0
                l(2) =   0
                l(3) =   1
                l(4) =   1
                l(5) =   2
     Q(r) pseudized with  8 coefficients,  rinner =    0.900   0.900   0.900
                                                       0.900   0.900

     atomic species   valence    mass     pseudopotential
     Ti               12.00    47.86700     Ti( 1.00)
     O                 6.00    15.99900     O ( 1.00)

     16 Sym. Ops., with inversion, found ( 8 have fractional translation)



   Cartesian axes

     site n.     atom                  positions (alat units)
         1        Ti     tau(   1) = (   0.5000004   0.5000004   0.3192234  )
         2        Ti     tau(   2) = (   0.0000000   0.0000000   0.0000000  )
         3        O      tau(   3) = (   0.6950896   0.6950896   0.0000000  )
         4        O      tau(   4) = (   0.1950892   0.8049117   0.3192234  )
         5        O      tau(   5) = (   0.3049112   0.3049112   0.0000000  )
         6        O      tau(   6) = (   0.8049117   0.1950892   0.3192234  )

     number of k points=     9
                       cart. coord. in units 2pi/alat
        k(    1) = (   0.0000000   0.0000000   0.0000000), wk =   0.0555556
        k(    2) = (   0.0000000   0.0000000   0.3915758), wk =   0.1111111
        k(    3) = (   0.0000000   0.0000000  -0.7831517), wk =   0.0555556
        k(    4) = (   0.0000000   0.3333333   0.0000000), wk =   0.2222222
        k(    5) = (   0.0000000   0.3333333   0.3915758), wk =   0.4444444
        k(    6) = (   0.0000000   0.3333333  -0.7831517), wk =   0.2222222
        k(    7) = (   0.3333333   0.3333333   0.0000000), wk =   0.2222222
        k(    8) = (   0.3333333   0.3333333   0.3915758), wk =   0.4444444
        k(    9) = (   0.3333333   0.3333333  -0.7831517), wk =   0.2222222

     Dense  grid:    27227 G-vectors     FFT dimensions: (  48,  48,  30)

     Smooth grid:     9655 G-vectors     FFT dimensions: (  32,  32,  20)

     Estimated max dynamical RAM per process >     104.21 MB

     Check: negative core charge=   -0.000008

     Initial potential from superposition of free atoms

     starting charge      45.9999, renormalised to      48.0000

     negative rho (up, down):  2.377E-03 0.000E+00
     Starting wfcs are   36 randomized atomic wfcs

     total cpu time spent up to now is        1.6 secs

     per-process dynamical memory:    28.4 Mb

     Self-consistent Calculation

     iteration #  1     ecut=    30.00 Ry     beta= 0.30
     Davidson diagonalization with overlap
     ethr =  1.00E-02,  avg # of iterations =  2.0

     negative rho (up, down):  2.565E-03 0.000E+00

     total cpu time spent up to now is        2.2 secs

     total energy              =    -368.10659028 Ry
     estimated scf accuracy    <       1.21297530 Ry

     iteration #  2     ecut=    30.00 Ry     beta= 0.30
     Davidson diagonalization with overlap
     ethr =  2.53E-03,  avg # of iterations =  3.9

     negative rho (up, down):  2.480E-03 0.000E+00

     total cpu time spent up to now is        2.7 secs

     total energy              =    -368.36842458 Ry
     estimated scf accuracy    <       0.07759859 Ry

     iteration #  3     ecut=    30.00 Ry     beta= 0.30
     Davidson diagonalization with overlap
     ethr =  1.62E-04,  avg # of iterations =  4.0

     negative rho (up, down):  2.253E-03 0.000E+00

     total cpu time spent up to now is        3.3 secs

     total energy              =    -368.35253180 Ry
     estimated scf accuracy    <       0.06101908 Ry

     iteration #  4     ecut=    30.00 Ry     beta= 0.30
     Davidson diagonalization with overlap
     ethr =  1.27E-04,  avg # of iterations =  5.0

     negative rho (up, down):  2.283E-03 0.000E+00

     total cpu time spent up to now is        3.9 secs

     total energy              =    -368.35020180 Ry
     estimated scf accuracy    <       0.14364869 Ry

     iteration #  5     ecut=    30.00 Ry     beta= 0.30
     Davidson diagonalization with overlap
     ethr =  1.27E-04,  avg # of iterations =  4.6

     negative rho (up, down):  2.250E-03 0.000E+00

     total cpu time spent up to now is        4.6 secs

     total energy              =    -368.37884198 Ry
     estimated scf accuracy    <       0.00288057 Ry

     iteration #  6     ecut=    30.00 Ry     beta= 0.30
     Davidson diagonalization with overlap
     ethr =  6.00E-06,  avg # of iterations =  5.4

     negative rho (up, down):  2.209E-03 0.000E+00

     total cpu time spent up to now is        5.2 secs

     total energy              =    -368.37365469 Ry
     estimated scf accuracy    <       0.02792541 Ry

     iteration #  7     ecut=    30.00 Ry     beta= 0.30
     Davidson diagonalization with overlap
     ethr =  6.00E-06,  avg # of iterations =  5.0

     negative rho (up, down):  2.207E-03 0.000E+00

     total cpu time spent up to now is        5.9 secs

     total energy              =    -368.37763520 Ry
     estimated scf accuracy    <       0.00002994 Ry

     iteration #  8     ecut=    30.00 Ry     beta= 0.30
     Davidson diagonalization with overlap
     ethr =  6.24E-08,  avg # of iterations =  3.9

     negative rho (up, down):  2.209E-03 0.000E+00

     total cpu time spent up to now is        6.5 secs

     total energy              =    -368.37763368 Ry
     estimated scf accuracy    <       0.00003040 Ry

     iteration #  9     ecut=    30.00 Ry     beta= 0.30
     Davidson diagonalization with overlap
     ethr =  6.24E-08,  avg # of iterations =  4.4

     negative rho (up, down):  2.208E-03 0.000E+00

     total cpu time spent up to now is        7.1 secs

     total energy              =    -368.37764183 Ry
     estimated scf accuracy    <       0.00001832 Ry

     iteration # 10     ecut=    30.00 Ry     beta= 0.30
     Davidson diagonalization with overlap
     ethr =  3.82E-08,  avg # of iterations =  2.7

     negative rho (up, down):  2.208E-03 0.000E+00

     total cpu time spent up to now is        7.7 secs

     total energy              =    -368.37764423 Ry
     estimated scf accuracy    <       0.00000113 Ry

     iteration # 11     ecut=    30.00 Ry     beta= 0.30
     Davidson diagonalization with overlap
     ethr =  2.36E-09,  avg # of iterations =  4.1

     negative rho (up, down):  2.208E-03 0.000E+00

     total cpu time spent up to now is        8.3 secs

     End of self-consistent calculation

          k = 0.0000 0.0000 0.0000 (  1177 PWs)   bands (ev):

   -48.0071 -47.9929 -24.6239 -24.6238 -24.4718 -24.4717 -24.4384 -24.4065
    -9.4566  -8.2712  -7.5776  -7.5776   2.6197   3.0809   3.4972   4.6144
     4.6145   5.7873   5.7873   6.4273   7.6439   7.8743   7.8743   8.3209

          k = 0.0000 0.0000 0.3916 (  1198 PWs)   bands (ev):

   -47.9851 -47.9744 -24.6573 -24.6366 -24.5657 -24.5656 -24.4627 -24.4626
    -8.8781  -7.9856  -7.8239  -7.8239   3.4167   3.6617   4.1936   4.2891
     4.2892   5.0492   5.8774   6.5659   6.5659   6.8417   6.8417   7.9006

          k = 0.0000 0.0000-0.7832 (  1234 PWs)   bands (ev):

   -47.9598 -47.9596 -24.8634 -24.8631 -24.4858 -24.4856 -24.4747 -24.4745
    -8.0687  -8.0687  -7.9874  -7.9873   3.9174   3.9175   4.6642   4.6643
     4.7255   4.7256   5.5635   5.5635   6.0275   6.0276   6.8982   6.8982

          k = 0.0000 0.3333 0.0000 (  1201 PWs)   bands (ev):

   -48.0038 -47.9966 -24.5954 -24.5935 -24.5048 -24.5029 -24.4304 -24.4145
    -9.0978  -8.4086  -7.7998  -7.6954   3.1676   3.4000   4.2354   4.6478
     4.6626   5.3151   5.5319   6.3396   6.5195   7.1059   7.4535   7.9339

          k = 0.0000 0.3333 0.3916 (  1206 PWs)   bands (ev):

   -47.9824 -47.9772 -24.6623 -24.6505 -24.5414 -24.5364 -24.4833 -24.4797
    -8.6270  -8.1012  -7.9543  -7.8737   3.7523   4.0298   4.0635   4.1724
     4.9591   4.9669   5.2187   6.0535   6.1713   6.8353   7.1774   7.7298

          k = 0.0000 0.3333-0.7832 (  1202 PWs)   bands (ev):

   -47.9593 -47.9591 -24.8697 -24.8695 -24.4804 -24.4801 -24.4739 -24.4737
    -8.3161  -8.3161  -7.7199  -7.7199   3.4805   3.4805   4.3568   4.3568
     5.1065   5.1066   5.8029   5.8029   6.5048   6.5048   6.9795   6.9795

          k = 0.3333 0.3333 0.0000 (  1197 PWs)   bands (ev):

   -48.0020 -47.9983 -24.6325 -24.6012 -24.4987 -24.4663 -24.4264 -24.4184
    -8.9402  -8.5930  -7.7903  -7.6761   2.8627   3.3002   4.5622   4.6259
     4.6824   5.5022   6.0058   6.5576   6.7580   6.8229   7.1292   7.6467

          k = 0.3333 0.3333 0.3916 (  1202 PWs)   bands (ev):

   -47.9811 -47.9783 -24.6554 -24.6479 -24.5723 -24.5434 -24.4779 -24.4590
    -8.4831  -8.2171  -7.9443  -7.9061   3.4856   3.7908   3.9195   3.9416
     5.0854   5.5567   5.6952   6.1972   6.5602   6.6781   6.9945   7.4453

          k = 0.3333 0.3333-0.7832 (  1200 PWs)   bands (ev):

   -47.9593 -47.9590 -24.8684 -24.8636 -24.4871 -24.4807 -24.4757 -24.4746
    -8.3262  -8.1368  -7.9018  -7.7006   3.3384   3.8267   3.9462   4.1830
     4.5881   5.3013   5.5887   5.7031   6.8105   7.0075   7.2217   7.5029

     highest occupied level (ev):     8.3209

!    total energy              =    -368.37764429 Ry
     estimated scf accuracy    <       0.00000025 Ry

     The total energy is the sum of the following terms:
     one-electron contribution =    -129.47195927 Ry
     hartree contribution      =      86.85666096 Ry
     xc contribution           =     -64.24858809 Ry
     ewald contribution        =    -261.51375788 Ry

     convergence has been achieved in  11 iterations

     Writing all to output data dir ./tmp/TiO2.save/ :
     XML data file, charge density, pseudopotentials, collected wavefunctions

     init_run     :      1.17s CPU      1.39s WALL (       1 calls)
     electrons    :      4.82s CPU      6.70s WALL (       1 calls)

     Called by init_run:
     wfcinit      :      0.23s CPU      0.26s WALL (       1 calls)
     potinit      :      0.23s CPU      0.23s WALL (       1 calls)
     hinit0       :      0.63s CPU      0.67s WALL (       1 calls)

     Called by electrons:
     c_bands      :      2.37s CPU      2.43s WALL (      11 calls)
     sum_band     :      1.40s CPU      2.35s WALL (      11 calls)
     v_of_rho     :      0.05s CPU      0.05s WALL (      12 calls)
     newd         :      1.04s CPU      2.04s WALL (      12 calls)
     mix_rho      :      0.02s CPU      0.02s WALL (      11 calls)

     Called by c_bands:
     init_us_2    :      0.08s CPU      0.09s WALL (     207 calls)
     cegterg      :      2.20s CPU      2.24s WALL (      99 calls)

     Called by *egterg:
     cdiaghg      :      0.21s CPU      0.22s WALL (     504 calls)
     h_psi        :      1.65s CPU      1.69s WALL (     513 calls)
     s_psi        :      0.13s CPU      0.14s WALL (     513 calls)
     g_psi        :      0.02s CPU      0.02s WALL (     405 calls)

     Called by h_psi:
     h_psi:calbec :      0.18s CPU      0.19s WALL (     513 calls)
     vloc_psi     :      1.32s CPU      1.35s WALL (     513 calls)
                                        0.00s GPU  (     513 calls)
     add_vuspsi   :      0.14s CPU      0.14s WALL (     513 calls)

     General routines
     calbec       :      0.23s CPU      0.23s WALL (     612 calls)
     fft          :      0.32s CPU      0.34s WALL (      70 calls)
     ffts         :      0.20s CPU      0.20s WALL (      23 calls)
     fftw         :      1.26s CPU      1.30s WALL (   17800 calls)
     interpolate  :      0.20s CPU      0.20s WALL (      12 calls)

     Parallel routines

     PWSCF        :      6.10s CPU      8.32s WALL


   This run was terminated on:  19:37:45  17Sep2025            

=------------------------------------------------------------------------------=
   JOB DONE.
=------------------------------------------------------------------------------=
Note: The following floating-point exceptions are signalling: IEEE_INVALID_FLAG
