
     Program PWSCF v.7.5 starts on 17Sep2025 at 19:39:20 

     This program is part of the open-source Quantum ESPRESSO suite
     for quantum simulation of materials; please cite
         "P. Giannozzi et al., J. Phys.:Condens. Matter 21 395502 (2009);
         "P. Giannozzi et al., J. Phys.:Condens. Matter 29 465901 (2017);
         "P. Giannozzi et al., J. Chem. Phys. 152 154105 (2020);
          URL http://www.quantum-espresso.org", 
     in publications or presentations arising from this work. More details at
     http://www.quantum-espresso.org/quote

     Parallel version (MPI & OpenMP), running on       1 processor cores
     Number of MPI processes:                 1
     Threads/MPI process:                     1

     MPI processes distributed on     1 nodes
     4266 MiB available memory on the printing compute node when the environment starts

     Reading input from TiO2.scf.E40.in

     Current dimensions of program PWSCF are:
     Max number of different atomic species (ntypx) = 10
     Max number of k-points (npk) =  40000
     Max angular momentum in pseudopotentials (lmaxx) =  4

     IMPORTANT: XC functional enforced from input :
     Exchange-correlation= PZ
                           (   1   1   0   0   0   0   0)
     Any further DFT definition will be discarded
     Please, verify this is what you really want


     Subspace diagonalization in iterative solution of the eigenvalue problem:
     a serial algorithm will be used


     G-vector sticks info
     --------------------
     sticks:   dense  smooth     PW     G-vecs:    dense   smooth      PW
     Sum        1969     981    293                41967    14763    2497

     Using Slab Decomposition



     bravais-lattice index     =            6
     lattice parameter (alat)  =       8.7906  a.u.
     unit-cell volume          =     433.6888 (a.u.)^3
     number of atoms/cell      =            6
     number of atomic types    =            2
     number of electrons       =        48.00
     number of Kohn-Sham states=           24
     kinetic-energy cutoff     =      40.0000  Ry
     charge density cutoff     =     320.0000  Ry
     scf convergence threshold =      1.0E-06
     mixing beta               =       0.3000
     number of iterations used =            8  plain     mixing
     Exchange-correlation= PZ
                           (   1   1   0   0   0   0   0)

     celldm(1)=   8.790590  celldm(2)=   0.000000  celldm(3)=   0.638446
     celldm(4)=   0.000000  celldm(5)=   0.000000  celldm(6)=   0.000000

     crystal axes: (cart. coord. in units of alat)
               a(1) = (   1.000000   0.000000   0.000000 )  
               a(2) = (   0.000000   1.000000   0.000000 )  
               a(3) = (   0.000000   0.000000   0.638446 )  

     reciprocal axes: (cart. coord. in units 2 pi/alat)
               b(1) = (  1.000000  0.000000  0.000000 )  
               b(2) = (  0.000000  1.000000  0.000000 )  
               b(3) = (  0.000000  0.000000  1.566303 )  


     PseudoPot. # 1 for Ti read from file:
     /home/dean_gov/qe-pp/gbrv_lda/ti_lda_v1.4.uspp.F.UPF
     MD5 check sum: 0d9f225c038fe889ca2a701dcc8d72cb
     Pseudo is Ultrasoft + core correction, Zval = 12.0
     Generated by new atomic code, or converted to UPF format
     Using radial grid of  851 points,  6 beta functions with: 
                l(1) =   0
                l(2) =   0
                l(3) =   1
                l(4) =   1
                l(5) =   2
                l(6) =   2
     Q(r) pseudized with  6 coefficients,  rinner =    1.000   1.000   1.000
                                                       1.000   1.000

     PseudoPot. # 2 for O  read from file:
     /home/dean_gov/qe-pp/gbrv_lda/o_lda_v1.2.uspp.F.UPF
     MD5 check sum: 194b818514d2a7dbb603bb78519a4f40
     Pseudo is Ultrasoft + core correction, Zval =  6.0
     Generated by new atomic code, or converted to UPF format
     Using radial grid of  737 points,  5 beta functions with: 
                l(1) =   0
                l(2) =   0
                l(3) =   1
                l(4) =   1
                l(5) =   2
     Q(r) pseudized with  8 coefficients,  rinner =    0.900   0.900   0.900
                                                       0.900   0.900

     atomic species   valence    mass     pseudopotential
     Ti               12.00    47.86700     Ti( 1.00)
     O                 6.00    15.99900     O ( 1.00)

     16 Sym. Ops., with inversion, found ( 8 have fractional translation)



   Cartesian axes

     site n.     atom                  positions (alat units)
         1        Ti     tau(   1) = (   0.5000004   0.5000004   0.3192234  )
         2        Ti     tau(   2) = (   0.0000000   0.0000000   0.0000000  )
         3        O      tau(   3) = (   0.6950896   0.6950896   0.0000000  )
         4        O      tau(   4) = (   0.1950892   0.8049117   0.3192234  )
         5        O      tau(   5) = (   0.3049112   0.3049112   0.0000000  )
         6        O      tau(   6) = (   0.8049117   0.1950892   0.3192234  )

     number of k points=     9
                       cart. coord. in units 2pi/alat
        k(    1) = (   0.0000000   0.0000000   0.0000000), wk =   0.0555556
        k(    2) = (   0.0000000   0.0000000   0.3915758), wk =   0.1111111
        k(    3) = (   0.0000000   0.0000000  -0.7831517), wk =   0.0555556
        k(    4) = (   0.0000000   0.3333333   0.0000000), wk =   0.2222222
        k(    5) = (   0.0000000   0.3333333   0.3915758), wk =   0.4444444
        k(    6) = (   0.0000000   0.3333333  -0.7831517), wk =   0.2222222
        k(    7) = (   0.3333333   0.3333333   0.0000000), wk =   0.2222222
        k(    8) = (   0.3333333   0.3333333   0.3915758), wk =   0.4444444
        k(    9) = (   0.3333333   0.3333333  -0.7831517), wk =   0.2222222

     Dense  grid:    41967 G-vectors     FFT dimensions: (  54,  54,  32)

     Smooth grid:    14763 G-vectors     FFT dimensions: (  36,  36,  24)

     Estimated max dynamical RAM per process >     158.74 MB

     Check: negative core charge=   -0.000012

     Initial potential from superposition of free atoms

     starting charge      45.9999, renormalised to      48.0000

     negative rho (up, down):  1.752E-03 0.000E+00
     Starting wfcs are   36 randomized atomic wfcs

     total cpu time spent up to now is        1.9 secs

     per-process dynamical memory:    37.4 Mb

     Self-consistent Calculation

     iteration #  1     ecut=    40.00 Ry     beta= 0.30
     Davidson diagonalization with overlap
     ethr =  1.00E-02,  avg # of iterations =  2.0

     negative rho (up, down):  1.905E-03 0.000E+00

     total cpu time spent up to now is        2.8 secs

     total energy              =    -368.13134100 Ry
     estimated scf accuracy    <       1.24323029 Ry

     iteration #  2     ecut=    40.00 Ry     beta= 0.30
     Davidson diagonalization with overlap
     ethr =  2.59E-03,  avg # of iterations =  3.9

     negative rho (up, down):  1.848E-03 0.000E+00

     total cpu time spent up to now is        3.7 secs

     total energy              =    -368.40321913 Ry
     estimated scf accuracy    <       0.07798474 Ry

     iteration #  3     ecut=    40.00 Ry     beta= 0.30
     Davidson diagonalization with overlap
     ethr =  1.62E-04,  avg # of iterations =  4.0

     negative rho (up, down):  1.690E-03 0.000E+00

     total cpu time spent up to now is        4.6 secs

     total energy              =    -368.38831429 Ry
     estimated scf accuracy    <       0.06325670 Ry

     iteration #  4     ecut=    40.00 Ry     beta= 0.30
     Davidson diagonalization with overlap
     ethr =  1.32E-04,  avg # of iterations =  5.0

     negative rho (up, down):  1.717E-03 0.000E+00

     total cpu time spent up to now is        5.6 secs

     total energy              =    -368.38709230 Ry
     estimated scf accuracy    <       0.15032514 Ry

     iteration #  5     ecut=    40.00 Ry     beta= 0.30
     Davidson diagonalization with overlap
     ethr =  1.32E-04,  avg # of iterations =  4.2

     negative rho (up, down):  1.695E-03 0.000E+00

     total cpu time spent up to now is        6.6 secs

     total energy              =    -368.41678433 Ry
     estimated scf accuracy    <       0.00280595 Ry

     iteration #  6     ecut=    40.00 Ry     beta= 0.30
     Davidson diagonalization with overlap
     ethr =  5.85E-06,  avg # of iterations =  5.6

     negative rho (up, down):  1.667E-03 0.000E+00

     total cpu time spent up to now is        7.7 secs

     total energy              =    -368.40880456 Ry
     estimated scf accuracy    <       0.03608714 Ry

     iteration #  7     ecut=    40.00 Ry     beta= 0.30
     Davidson diagonalization with overlap
     ethr =  5.85E-06,  avg # of iterations =  5.0

     negative rho (up, down):  1.667E-03 0.000E+00

     total cpu time spent up to now is        8.7 secs

     total energy              =    -368.41474922 Ry
     estimated scf accuracy    <       0.00037946 Ry

     iteration #  8     ecut=    40.00 Ry     beta= 0.30
     Davidson diagonalization with overlap
     ethr =  7.91E-07,  avg # of iterations =  1.7

     negative rho (up, down):  1.668E-03 0.000E+00

     total cpu time spent up to now is        9.5 secs

     total energy              =    -368.41467935 Ry
     estimated scf accuracy    <       0.00025587 Ry

     iteration #  9     ecut=    40.00 Ry     beta= 0.30
     Davidson diagonalization with overlap
     ethr =  5.33E-07,  avg # of iterations =  3.8

     negative rho (up, down):  1.668E-03 0.000E+00

     total cpu time spent up to now is       10.5 secs

     total energy              =    -368.41473974 Ry
     estimated scf accuracy    <       0.00000365 Ry

     iteration # 10     ecut=    40.00 Ry     beta= 0.30
     Davidson diagonalization with overlap
     ethr =  7.61E-09,  avg # of iterations =  4.8

     negative rho (up, down):  1.668E-03 0.000E+00

     total cpu time spent up to now is       11.5 secs

     total energy              =    -368.41474199 Ry
     estimated scf accuracy    <       0.00001328 Ry

     iteration # 11     ecut=    40.00 Ry     beta= 0.30
     Davidson diagonalization with overlap
     ethr =  7.61E-09,  avg # of iterations =  3.9

     negative rho (up, down):  1.667E-03 0.000E+00

     total cpu time spent up to now is       12.3 secs

     total energy              =    -368.41474190 Ry
     estimated scf accuracy    <       0.00000342 Ry

     iteration # 12     ecut=    40.00 Ry     beta= 0.30
     Davidson diagonalization with overlap
     ethr =  7.12E-09,  avg # of iterations =  2.8

     negative rho (up, down):  1.666E-03 0.000E+00

     total cpu time spent up to now is       13.2 secs

     End of self-consistent calculation

          k = 0.0000 0.0000 0.0000 (  1859 PWs)   bands (ev):

   -48.0037 -47.9885 -24.6191 -24.6190 -24.4670 -24.4670 -24.4334 -24.4016
    -9.4399  -8.2519  -7.5573  -7.5572   2.6132   3.0864   3.4854   4.6130
     4.6131   5.7765   5.7765   6.4156   7.6529   7.8807   7.8807   8.3200

          k = 0.0000 0.0000 0.3916 (  1855 PWs)   bands (ev):

   -47.9812 -47.9704 -24.6520 -24.6316 -24.5609 -24.5609 -24.4580 -24.4580
    -8.8605  -7.9658  -7.8039  -7.8039   3.4141   3.6671   4.1865   4.2854
     4.2854   5.0415   5.8827   6.5642   6.5642   6.8484   6.8485   7.8995

          k = 0.0000 0.0000-0.7832 (  1812 PWs)   bands (ev):

   -47.9555 -47.9552 -24.8579 -24.8577 -24.4810 -24.4807 -24.4701 -24.4699
    -8.0489  -8.0488  -7.9679  -7.9679   3.9218   3.9219   4.6634   4.6634
     4.7269   4.7269   5.5717   5.5717   6.0290   6.0290   6.9033   6.9033

          k = 0.0000 0.3333 0.0000 (  1866 PWs)   bands (ev):

   -47.9999 -47.9922 -24.5905 -24.5887 -24.5001 -24.4982 -24.4254 -24.4095
    -9.0805  -8.3898  -7.7798  -7.6752   3.1638   3.4024   4.2320   4.6485
     4.6621   5.3121   5.5341   6.3433   6.5180   7.1095   7.4605   7.9352

          k = 0.0000 0.3333 0.3916 (  1849 PWs)   bands (ev):

   -47.9784 -47.9730 -24.6571 -24.6454 -24.5366 -24.5316 -24.4785 -24.4749
    -8.6089  -8.0818  -7.9344  -7.8537   3.7522   4.0268   4.0652   4.1725
     4.9587   4.9692   5.2182   6.0536   6.1733   6.8378   7.1788   7.7316

          k = 0.0000 0.3333-0.7832 (  1848 PWs)   bands (ev):

   -47.9554 -47.9552 -24.8644 -24.8641 -24.4756 -24.4753 -24.4693 -24.4691
    -8.2969  -8.2968  -7.7000  -7.6999   3.4762   3.4762   4.3568   4.3568
     5.1039   5.1039   5.8051   5.8052   6.5049   6.5049   6.9786   6.9786

          k = 0.3333 0.3333 0.0000 (  1852 PWs)   bands (ev):

   -47.9979 -47.9941 -24.6276 -24.5964 -24.4940 -24.4616 -24.4214 -24.4134
    -8.9225  -8.5745  -7.7704  -7.6561   2.8630   3.3009   4.5630   4.6272
     4.6794   5.5025   6.0056   6.5558   6.7592   6.8256   7.1315   7.6480

          k = 0.3333 0.3333 0.3916 (  1860 PWs)   bands (ev):

   -47.9771 -47.9744 -24.6503 -24.6428 -24.5674 -24.5386 -24.4731 -24.4543
    -8.4646  -8.1980  -7.9245  -7.8863   3.4851   3.7884   3.9189   3.9391
     5.0842   5.5580   5.6938   6.1974   6.5595   6.6808   6.9966   7.4469

          k = 0.3333 0.3333-0.7832 (  1864 PWs)   bands (ev):

   -47.9554 -47.9552 -24.8630 -24.8582 -24.4822 -24.4759 -24.4712 -24.4700
    -8.3069  -8.1172  -7.8821  -7.6806   3.3329   3.8220   3.9428   4.1838
     4.5888   5.3040   5.5871   5.7040   6.8051   7.0087   7.2240   7.5035

     highest occupied level (ev):     8.3200

!    total energy              =    -368.41474248 Ry
     estimated scf accuracy    <       0.00000093 Ry

     The total energy is the sum of the following terms:
     one-electron contribution =    -129.55335300 Ry
     hartree contribution      =      86.91306329 Ry
     xc contribution           =     -64.26069491 Ry
     ewald contribution        =    -261.51375787 Ry

     convergence has been achieved in  12 iterations

     Writing all to output data dir ./tmp/TiO2.save/ :
     XML data file, charge density, pseudopotentials, collected wavefunctions

     init_run     :      1.48s CPU      1.71s WALL (       1 calls)
     electrons    :      8.15s CPU     11.33s WALL (       1 calls)

     Called by init_run:
     wfcinit      :      0.33s CPU      0.35s WALL (       1 calls)
     potinit      :      0.32s CPU      0.33s WALL (       1 calls)
     hinit0       :      0.66s CPU      0.69s WALL (       1 calls)

     Called by electrons:
     c_bands      :      3.98s CPU      4.05s WALL (      12 calls)
     sum_band     :      2.40s CPU      4.00s WALL (      12 calls)
     v_of_rho     :      0.09s CPU      0.09s WALL (      13 calls)
     newd         :      1.81s CPU      3.46s WALL (      13 calls)
     mix_rho      :      0.03s CPU      0.04s WALL (      12 calls)

     Called by c_bands:
     init_us_2    :      0.16s CPU      0.17s WALL (     225 calls)
     cegterg      :      3.67s CPU      3.72s WALL (     108 calls)

     Called by *egterg:
     cdiaghg      :      0.23s CPU      0.23s WALL (     527 calls)
     h_psi        :      2.84s CPU      2.89s WALL (     536 calls)
     s_psi        :      0.23s CPU      0.23s WALL (     536 calls)
     g_psi        :      0.03s CPU      0.03s WALL (     419 calls)

     Called by h_psi:
     h_psi:calbec :      0.29s CPU      0.30s WALL (     536 calls)
     vloc_psi     :      2.30s CPU      2.34s WALL (     536 calls)
                                        0.00s GPU  (     536 calls)
     add_vuspsi   :      0.23s CPU      0.23s WALL (     536 calls)

     General routines
     calbec       :      0.37s CPU      0.37s WALL (     644 calls)
     fft          :      0.24s CPU      0.25s WALL (      76 calls)
     ffts         :      0.25s CPU      0.25s WALL (      25 calls)
     fftw         :      2.27s CPU      2.31s WALL (   18732 calls)
     interpolate  :      0.25s CPU      0.26s WALL (      13 calls)

     Parallel routines

     PWSCF        :      9.76s CPU     13.26s WALL


   This run was terminated on:  19:39:34  17Sep2025            

=------------------------------------------------------------------------------=
   JOB DONE.
=------------------------------------------------------------------------------=
Note: The following floating-point exceptions are signalling: IEEE_INVALID_FLAG
