
     Program BANDS v.7.5 starts on 17Sep2025 at 21:12:56 

     This program is part of the open-source Quantum ESPRESSO suite
     for quantum simulation of materials; please cite
         "P. Giannozzi et al., J. Phys.:Condens. Matter 21 395502 (2009);
         "P. Giannozzi et al., J. Phys.:Condens. Matter 29 465901 (2017);
         "P. Giannozzi et al., J. Chem. Phys. 152 154105 (2020);
          URL http://www.quantum-espresso.org", 
     in publications or presentations arising from this work. More details at
     http://www.quantum-espresso.org/quote

     Parallel version (MPI & OpenMP), running on      16 processor cores
     Number of MPI processes:                 1
     Threads/MPI process:                    16

     MPI processes distributed on     1 nodes
     3865 MiB available memory on the printing compute node when the environment starts


     Reading xml data from directory:

     ./tmp/TiO2.save/

     IMPORTANT: XC functional enforced from input :
     Exchange-correlation= PZ
                           (   1   1   0   0   0   0   0)
     Any further DFT definition will be discarded
     Please, verify this is what you really want


     G-vector sticks info
     --------------------
     sticks:   dense  smooth     PW     G-vecs:    dense   smooth      PW
     Sum        1885     949    293                39459    13955    2449

     Using Slab Decomposition


     Check: negative core charge=   -0.000013

     negative rho (up, down):  1.848E-03 0.000E+00
     Reading collected, re-writing distributed wavefunctions
     high-symmetry point:  0.0000 0.0000 0.0000   x coordinate   0.0000
     high-symmetry point:  0.0000 0.5000 0.0000   x coordinate   0.5000
     high-symmetry point:  0.5000 0.5000 0.0000   x coordinate   1.0000
     high-symmetry point:  0.0000 0.0000 0.0000   x coordinate   1.7071
     high-symmetry point:  0.0000 0.0000 0.7781   x coordinate   2.4852
     high-symmetry point:  0.0000 0.5000 0.7781   x coordinate   2.9852
     high-symmetry point:  0.5000 0.5000 0.7781   x coordinate   3.4852
     high-symmetry point:  0.0000 0.0000 0.7781   x coordinate   4.1923

     Plottable bands (eV) written to file TiO2.bands.dat.gnu
     Bands written to file TiO2.bands.dat

 **************************************************************************

                    xk=(   0.00000,   0.00000,   0.00000  )

     point group C_1 (1)    
     there are  1 classes
     the character table:

       E    
A      1.00

     the symmetry operations in each class and the name of the first element:

     E        1
                                                                 

     Band symmetry, C_1 (1)     point group:

     e(  1 -  1) =    -46.91937  eV     1   --> A              
     e(  2 -  2) =    -46.89799  eV     1   --> A              
     e(  3 -  4) =    -23.59930  eV     2   -->   2 A              
     e(  5 -  6) =    -23.40603  eV     2   -->   2 A              
     e(  7 -  7) =    -23.36309  eV     1   --> A              
     e(  8 -  8) =    -23.32038  eV     1   --> A              
     e(  9 -  9) =     -8.83411  eV     1   --> A              
     e( 10 - 10) =     -7.55168  eV     1   --> A              
     e( 11 - 12) =     -6.70950  eV     2   -->   2 A              
     e( 13 - 13) =      3.24540  eV     1   --> A              
     e( 14 - 14) =      3.66274  eV     1   --> A              
     e( 15 - 15) =      3.96811  eV     1   --> A              
     e( 16 - 16) =      5.29190  eV     1   --> A              
     e( 17 - 17) =      5.29201  eV     1   --> A              
     e( 18 - 19) =      6.57788  eV     2   -->   2 A              
     e( 20 - 20) =      7.20996  eV     1   --> A              
     e( 21 - 21) =      8.53353  eV     1   --> A              
     e( 22 - 23) =      8.76220  eV     2   -->   2 A              
     e( 24 - 24) =      9.23600  eV     1   --> A              
     e( 25 - 25) =     11.09015  eV     1   --> A              
     e( 26 - 26) =     11.37199  eV     1   --> A              
     e( 27 - 27) =     11.66534  eV     1   --> A              
     e( 28 - 28) =     11.78295  eV     1   --> A              
     e( 29 - 29) =     11.78314  eV     1   --> A              
     e( 30 - 30) =     13.93478  eV     1   --> A              
     e( 31 - 31) =     14.01544  eV     1   --> A              
     e( 32 - 32) =     16.13553  eV     1   --> A              
     e( 33 - 33) =     16.13563  eV     1   --> A              
     e( 34 - 34) =     17.15102  eV     1   --> A              
     e( 35 - 35) =     17.23749  eV     1   --> A              
     e( 36 - 37) =     20.81991  eV     2   -->   2 A              
     e( 38 - 38) =     23.64623  eV     1   --> A              
     e( 39 - 39) =     24.88954  eV     1   --> A              
     e( 40 - 40) =     25.75251  eV     1   --> A              
     e( 41 - 41) =     27.68592  eV     1   --> A              
     e( 42 - 42) =     28.50948  eV     1   --> A              
     e( 43 - 44) =     28.71873  eV     2   -->   2 A              
     e( 45 - 45) =     30.73665  eV     1   --> A              
     e( 46 - 46) =     32.26798  eV     1   --> A              
     e( 47 - 48) =     33.31534  eV     2   -->   2 A              
     e( 49 - 49) =     34.29728  eV     1   --> A              
     e( 50 - 50) =     34.86446  eV     1   --> A              

 **************************************************************************

 **************************************************************************

                    xk=(   0.00000,   0.02500,   0.00000  )

     Band symmetry, C_1 (1)     point group:

     e(  1 -  1) =    -46.91934  eV     1   --> A              
     e(  2 -  2) =    -46.89802  eV     1   --> A              
     e(  3 -  4) =    -23.59903  eV     2   -->   2 A              
     e(  5 -  6) =    -23.40632  eV     2   -->   2 A              
     e(  7 -  7) =    -23.36302  eV     1   --> A              
     e(  8 -  8) =    -23.32040  eV     1   --> A              
     e(  9 -  9) =     -8.83163  eV     1   --> A              
     e( 10 - 10) =     -7.55154  eV     1   --> A              
     e( 11 - 11) =     -6.71233  eV     1   --> A              
     e( 12 - 12) =     -6.71054  eV     1   --> A              
     e( 13 - 13) =      3.25007  eV     1   --> A              
     e( 14 - 14) =      3.66561  eV     1   --> A              
     e( 15 - 15) =      3.97239  eV     1   --> A              
     e( 16 - 16) =      5.29225  eV     1   --> A              
     e( 17 - 17) =      5.29251  eV     1   --> A              
     e( 18 - 18) =      6.57327  eV     1   --> A              
     e( 19 - 19) =      6.57709  eV     1   --> A              
     e( 20 - 20) =      7.21004  eV     1   --> A              
     e( 21 - 21) =      8.52881  eV     1   --> A              
     e( 22 - 22) =      8.74882  eV     1   --> A              
     e( 23 - 23) =      8.75549  eV     1   --> A              
     e( 24 - 24) =      9.23410  eV     1   --> A              
     e( 25 - 25) =     11.09435  eV     1   --> A              
     e( 26 - 26) =     11.37792  eV     1   --> A              
     e( 27 - 27) =     11.67086  eV     1   --> A              
     e( 28 - 28) =     11.78593  eV     1   --> A              
     e( 29 - 29) =     11.78739  eV     1   --> A              
     e( 30 - 30) =     13.93945  eV     1   --> A              
     e( 31 - 31) =     14.01194  eV     1   --> A              
     e( 32 - 32) =     16.13309  eV     1   --> A              
     e( 33 - 33) =     16.13368  eV     1   --> A              
     e( 34 - 34) =     17.15896  eV     1   --> A              
     e( 35 - 35) =     17.23344  eV     1   --> A              
     e( 36 - 36) =     20.81921  eV     1   --> A              
     e( 37 - 37) =     20.82494  eV     1   --> A              
     e( 38 - 38) =     23.64649  eV     1   --> A              
     e( 39 - 39) =     24.88468  eV     1   --> A              
     e( 40 - 40) =     25.74831  eV     1   --> A              
     e( 41 - 41) =     27.68203  eV     1   --> A              
     e( 42 - 42) =     28.51567  eV     1   --> A              
     e( 43 - 43) =     28.71661  eV     1   --> A              
     e( 44 - 44) =     28.73095  eV     1   --> A              
     e( 45 - 45) =     30.74284  eV     1   --> A              
     e( 46 - 46) =     32.26512  eV     1   --> A              
     e( 47 - 47) =     33.24529  eV     1   --> A              
     e( 48 - 48) =     33.31789  eV     1   --> A              
     e( 49 - 49) =     34.26090  eV     1   --> A              
     e( 50 - 50) =     34.76021  eV     1   --> A              

 **************************************************************************

 **************************************************************************

                    xk=(   0.00000,   0.05000,   0.00000  )

     Band symmetry, C_1 (1)     point group:

     e(  1 -  1) =    -46.91924  eV     1   --> A              
     e(  2 -  2) =    -46.89812  eV     1   --> A              
     e(  3 -  3) =    -23.59828  eV     1   --> A              
     e(  4 -  4) =    -23.59816  eV     1   --> A              
     e(  5 -  5) =    -23.40724  eV     1   --> A              
     e(  6 -  6) =    -23.40711  eV     1   --> A              
     e(  7 -  7) =    -23.36281  eV     1   --> A              
     e(  8 -  8) =    -23.32058  eV     1   --> A              
     e(  9 -  9) =     -8.82418  eV     1   --> A              
     e( 10 - 10) =     -7.55116  eV     1   --> A              
     e( 11 - 11) =     -6.72083  eV     1   --> A              
     e( 12 - 12) =     -6.71371  eV     1   --> A              
     e( 13 - 13) =      3.26398  eV     1   --> A              
     e( 14 - 14) =      3.67415  eV     1   --> A              
     e( 15 - 15) =      3.98529  eV     1   --> A              
     e( 16 - 16) =      5.29314  eV     1   --> A              
     e( 17 - 17) =      5.29412  eV     1   --> A              
     e( 18 - 18) =      6.55955  eV     1   --> A              
     e( 19 - 19) =      6.57463  eV     1   --> A              
     e( 20 - 20) =      7.21030  eV     1   --> A              
     e( 21 - 21) =      8.51477  eV     1   --> A              
     e( 22 - 22) =      8.70932  eV     1   --> A              
     e( 23 - 23) =      8.73582  eV     1   --> A              
     e( 24 - 24) =      9.22809  eV     1   --> A              
     e( 25 - 25) =     11.10676  eV     1   --> A              
     e( 26 - 26) =     11.39526  eV     1   --> A              
     e( 27 - 27) =     11.68715  eV     1   --> A              
     e( 28 - 28) =     11.79453  eV     1   --> A              
     e( 29 - 29) =     11.80017  eV     1   --> A              
     e( 30 - 30) =     13.95322  eV     1   --> A              
     e( 31 - 31) =     14.00169  eV     1   --> A              
     e( 32 - 32) =     16.12563  eV     1   --> A              
     e( 33 - 33) =     16.12798  eV     1   --> A              
     e( 34 - 34) =     17.18091  eV     1   --> A              
     e( 35 - 35) =     17.22307  eV     1   --> A              
     e( 36 - 36) =     20.81677  eV     1   --> A              
     e( 37 - 37) =     20.83993  eV     1   --> A              
     e( 38 - 38) =     23.64737  eV     1   --> A              
     e( 39 - 39) =     24.87018  eV     1   --> A              
     e( 40 - 40) =     25.73598  eV     1   --> A              
     e( 41 - 41) =     27.67053  eV     1   --> A              
     e( 42 - 42) =     28.53407  eV     1   --> A              
     e( 43 - 43) =     28.71039  eV     1   --> A              
     e( 44 - 44) =     28.76678  eV     1   --> A              
     e( 45 - 45) =     30.76120  eV     1   --> A              
     e( 46 - 46) =     32.25643  eV     1   --> A              
     e( 47 - 47) =     33.06990  eV     1   --> A              
     e( 48 - 48) =     33.32546  eV     1   --> A              
     e( 49 - 49) =     34.04709  eV     1   --> A              
     e( 50 - 50) =     34.77380  eV     1   --> A              

 **************************************************************************

 **************************************************************************

                    xk=(   0.00000,   0.07500,   0.00000  )

     Band symmetry, C_1 (1)     point group:

     e(  1 -  1) =    -46.91907  eV     1   --> A              
     e(  2 -  2) =    -46.89828  eV     1   --> A              
     e(  3 -  3) =    -23.59705  eV     1   --> A              
     e(  4 -  4) =    -23.59680  eV     1   --> A              
     e(  5 -  5) =    -23.40878  eV     1   --> A              
     e(  6 -  6) =    -23.40851  eV     1   --> A              
     e(  7 -  7) =    -23.36249  eV     1   --> A              
     e(  8 -  8) =    -23.32091  eV     1   --> A              
     e(  9 -  9) =     -8.81181  eV     1   --> A              
     e( 10 - 10) =     -7.55064  eV     1   --> A              
     e( 11 - 11) =     -6.73475  eV     1   --> A              
     e( 12 - 12) =     -6.71898  eV     1   --> A              
     e( 13 - 13) =      3.28680  eV     1   --> A              
     e( 14 - 14) =      3.68825  eV     1   --> A              
     e( 15 - 15) =      4.00693  eV     1   --> A              
     e( 16 - 16) =      5.29459  eV     1   --> A              
     e( 17 - 17) =      5.29675  eV     1   --> A              
     e( 18 - 18) =      6.53710  eV     1   --> A              
     e( 19 - 19) =      6.57028  eV     1   --> A              
     e( 20 - 20) =      7.21084  eV     1   --> A              
     e( 21 - 21) =      8.49177  eV     1   --> A              
     e( 22 - 22) =      8.64562  eV     1   --> A              
     e( 23 - 23) =      8.70456  eV     1   --> A              
     e( 24 - 24) =      9.21730  eV     1   --> A              
     e( 25 - 25) =     11.12683  eV     1   --> A              
     e( 26 - 26) =     11.42269  eV     1   --> A              
     e( 27 - 27) =     11.71363  eV     1   --> A              
     e( 28 - 28) =     11.80867  eV     1   --> A              
     e( 29 - 29) =     11.82093  eV     1   --> A              
     e( 30 - 30) =     13.97086  eV     1   --> A              
     e( 31 - 31) =     13.99007  eV     1   --> A              
     e( 32 - 32) =     16.11337  eV     1   --> A              
     e( 33 - 33) =     16.11855  eV     1   --> A              
     e( 34 - 34) =     17.18847  eV     1   --> A              
     e( 35 - 35) =     17.23439  eV     1   --> A              
     e( 36 - 36) =     20.81206  eV     1   --> A              
     e( 37 - 37) =     20.86492  eV     1   --> A              
     e( 38 - 38) =     23.64920  eV     1   --> A              
     e( 39 - 39) =     24.84628  eV     1   --> A              
     e( 40 - 40) =     25.71635  eV     1   --> A              
     e( 41 - 41) =     27.65192  eV     1   --> A              
     e( 42 - 42) =     28.56462  eV     1   --> A              
     e( 43 - 43) =     28.70050  eV     1   --> A              
     e( 44 - 44) =     28.82371  eV     1   --> A              
     e( 45 - 45) =     30.79158  eV     1   --> A              
     e( 46 - 46) =     32.24167  eV     1   --> A              
     e( 47 - 47) =     32.84259  eV     1   --> A              
     e( 48 - 48) =     33.33781  eV     1   --> A              
     e( 49 - 49) =     33.71527  eV     1   --> A              
     e( 50 - 50) =     34.90902  eV     1   --> A              

 **************************************************************************

 **************************************************************************

                    xk=(   0.00000,   0.10000,   0.00000  )

     Band symmetry, C_1 (1)     point group:

     e(  1 -  1) =    -46.91884  eV     1   --> A              
     e(  2 -  2) =    -46.89851  eV     1   --> A              
     e(  3 -  3) =    -23.59534  eV     1   --> A              
     e(  4 -  4) =    -23.59490  eV     1   --> A              
     e(  5 -  5) =    -23.41093  eV     1   --> A              
     e(  6 -  6) =    -23.41046  eV     1   --> A              
     e(  7 -  7) =    -23.36203  eV     1   --> A              
     e(  8 -  8) =    -23.32137  eV     1   --> A              
     e(  9 -  9) =     -8.79457  eV     1   --> A              
     e( 10 - 10) =     -7.55020  eV     1   --> A              
     e( 11 - 11) =     -6.75372  eV     1   --> A              
     e( 12 - 12) =     -6.72626  eV     1   --> A              
     e( 13 - 13) =      3.31799  eV     1   --> A              
     e( 14 - 14) =      3.70769  eV     1   --> A              
     e( 15 - 15) =      4.03754  eV     1   --> A              
     e( 16 - 16) =      5.29661  eV     1   --> A              
     e( 17 - 17) =      5.30033  eV     1   --> A              
     e( 18 - 18) =      6.50653  eV     1   --> A              
     e( 19 - 19) =      6.56369  eV     1   --> A              
     e( 20 - 20) =      7.21184  eV     1   --> A              
     e( 21 - 21) =      8.46046  eV     1   --> A              
     e( 22 - 22) =      8.56018  eV     1   --> A              
     e( 23 - 23) =      8.66380  eV     1   --> A              
     e( 24 - 24) =      9.20111  eV     1   --> A              
     e( 25 - 25) =     11.15387  eV     1   --> A              
     e( 26 - 26) =     11.45837  eV     1   --> A              
     e( 27 - 27) =     11.74947  eV     1   --> A              
     e( 28 - 28) =     11.82817  eV     1   --> A              
     e( 29 - 29) =     11.84907  eV     1   --> A              
     e( 30 - 30) =     13.95507  eV     1   --> A              
     e( 31 - 31) =     14.01470  eV     1   --> A              
     e( 32 - 32) =     16.09665  eV     1   --> A              
     e( 33 - 33) =     16.10555  eV     1   --> A              
     e( 34 - 34) =     17.16084  eV     1   --> A              
     e( 35 - 35) =     17.28765  eV     1   --> A              
     e( 36 - 36) =     20.80406  eV     1   --> A              
     e( 37 - 37) =     20.89998  eV     1   --> A              
     e( 38 - 38) =     23.65243  eV     1   --> A              
     e( 39 - 39) =     24.81344  eV     1   --> A              
     e( 40 - 40) =     25.69067  eV     1   --> A              
     e( 41 - 41) =     27.62704  eV     1   --> A              
     e( 42 - 42) =     28.60725  eV     1   --> A              
     e( 43 - 43) =     28.68771  eV     1   --> A              
     e( 44 - 44) =     28.89765  eV     1   --> A              
     e( 45 - 45) =     30.83384  eV     1   --> A              
     e( 46 - 46) =     32.22049  eV     1   --> A              
     e( 47 - 47) =     32.59590  eV     1   --> A              
     e( 48 - 48) =     33.35461  eV     1   --> A              
     e( 49 - 49) =     33.35645  eV     1   --> A              
     e( 50 - 50) =     34.94136  eV     1   --> A              

 **************************************************************************

 **************************************************************************

                    xk=(   0.00000,   0.12500,   0.00000  )

     Band symmetry, C_1 (1)     point group:

     e(  1 -  1) =    -46.91855  eV     1   --> A              
     e(  2 -  2) =    -46.89880  eV     1   --> A              
     e(  3 -  3) =    -23.59315  eV     1   --> A              
     e(  4 -  4) =    -23.59248  eV     1   --> A              
     e(  5 -  5) =    -23.41364  eV     1   --> A              
     e(  6 -  6) =    -23.41293  eV     1   --> A              
     e(  7 -  7) =    -23.36145  eV     1   --> A              
     e(  8 -  8) =    -23.32194  eV     1   --> A              
     e(  9 -  9) =     -8.77256  eV     1   --> A              
     e( 10 - 10) =     -7.55012  eV     1   --> A              
     e( 11 - 11) =     -6.77720  eV     1   --> A              
     e( 12 - 12) =     -6.73550  eV     1   --> A              
     e( 13 - 13) =      3.35683  eV     1   --> A              
     e( 14 - 14) =      3.73220  eV     1   --> A              
     e( 15 - 15) =      4.07741  eV     1   --> A              
     e( 16 - 16) =      5.29916  eV     1   --> A              
     e( 17 - 17) =      5.30474  eV     1   --> A              
     e( 18 - 18) =      6.46866  eV     1   --> A              
     e( 19 - 19) =      6.55435  eV     1   --> A              
     e( 20 - 20) =      7.21354  eV     1   --> A              
     e( 21 - 21) =      8.42160  eV     1   --> A              
     e( 22 - 22) =      8.45561  eV     1   --> A              
     e( 23 - 23) =      8.61615  eV     1   --> A              
     e( 24 - 24) =      9.17917  eV     1   --> A              
     e( 25 - 25) =     11.18694  eV     1   --> A              
     e( 26 - 26) =     11.50006  eV     1   --> A              
     e( 27 - 27) =     11.79363  eV     1   --> A              
     e( 28 - 28) =     11.85262  eV     1   --> A              
     e( 29 - 29) =     11.88353  eV     1   --> A              
     e( 30 - 30) =     13.92425  eV     1   --> A              
     e( 31 - 31) =     14.05751  eV     1   --> A              
     e( 32 - 32) =     16.07579  eV     1   --> A              
     e( 33 - 33) =     16.08917  eV     1   --> A              
     e( 34 - 34) =     17.12138  eV     1   --> A              
     e( 35 - 35) =     17.35874  eV     1   --> A              
     e( 36 - 36) =     20.79148  eV     1   --> A              
     e( 37 - 37) =     20.94520  eV     1   --> A              
     e( 38 - 38) =     23.65754  eV     1   --> A              
     e( 39 - 39) =     24.77242  eV     1   --> A              
     e( 40 - 40) =     25.66035  eV     1   --> A              
     e( 41 - 41) =     27.59700  eV     1   --> A              
     e( 42 - 42) =     28.66178  eV     1   --> A              
     e( 43 - 43) =     28.67302  eV     1   --> A              
     e( 44 - 44) =     28.98260  eV     1   --> A              
     e( 45 - 45) =     30.88765  eV     1   --> A              
     e( 46 - 46) =     32.19239  eV     1   --> A              
     e( 47 - 47) =     32.34824  eV     1   --> A              
     e( 48 - 48) =     32.99608  eV     1   --> A              
     e( 49 - 49) =     33.37538  eV     1   --> A              
     e( 50 - 50) =     34.98009  eV     1   --> A              

 **************************************************************************

 **************************************************************************

                    xk=(   0.00000,   0.15000,   0.00000  )

     Band symmetry, C_1 (1)     point group:

     e(  1 -  1) =    -46.91820  eV     1   --> A              
     e(  2 -  2) =    -46.89914  eV     1   --> A              
     e(  3 -  3) =    -23.59051  eV     1   --> A              
     e(  4 -  4) =    -23.58956  eV     1   --> A              
     e(  5 -  5) =    -23.41691  eV     1   --> A              
     e(  6 -  6) =    -23.41592  eV     1   --> A              
     e(  7 -  7) =    -23.36074  eV     1   --> A              
     e(  8 -  8) =    -23.32264  eV     1   --> A              
     e(  9 -  9) =     -8.74587  eV     1   --> A              
     e( 10 - 10) =     -7.55082  eV     1   --> A              
     e( 11 - 11) =     -6.80449  eV     1   --> A              
     e( 12 - 12) =     -6.74658  eV     1   --> A              
     e( 13 - 13) =      3.40239  eV     1   --> A              
     e( 14 - 14) =      3.76136  eV     1   --> A              
     e( 15 - 15) =      4.12690  eV     1   --> A              
     e( 16 - 16) =      5.30222  eV     1   --> A              
     e( 17 - 17) =      5.30986  eV     1   --> A              
     e( 18 - 18) =      6.42449  eV     1   --> A              
     e( 19 - 19) =      6.54169  eV     1   --> A              
     e( 20 - 20) =      7.21620  eV     1   --> A              
     e( 21 - 21) =      8.33442  eV     1   --> A              
     e( 22 - 22) =      8.37608  eV     1   --> A              
     e( 23 - 23) =      8.56441  eV     1   --> A              
     e( 24 - 24) =      9.15145  eV     1   --> A              
     e( 25 - 25) =     11.22506  eV     1   --> A              
     e( 26 - 26) =     11.54538  eV     1   --> A              
     e( 27 - 27) =     11.84504  eV     1   --> A              
     e( 28 - 28) =     11.88164  eV     1   --> A              
     e( 29 - 29) =     11.92325  eV     1   --> A              
     e( 30 - 30) =     13.88645  eV     1   --> A              
     e( 31 - 31) =     14.11087  eV     1   --> A              
     e( 32 - 32) =     16.05132  eV     1   --> A              
     e( 33 - 33) =     16.06968  eV     1   --> A              
     e( 34 - 34) =     17.07276  eV     1   --> A              
     e( 35 - 35) =     17.44418  eV     1   --> A              
     e( 36 - 36) =     20.77280  eV     1   --> A              
     e( 37 - 37) =     21.00063  eV     1   --> A              
     e( 38 - 38) =     23.66483  eV     1   --> A              
     e( 39 - 39) =     24.72428  eV     1   --> A              
     e( 40 - 40) =     25.62676  eV     1   --> A              
     e( 41 - 41) =     27.56320  eV     1   --> A              
     e( 42 - 42) =     28.65762  eV     1   --> A              
     e( 43 - 43) =     28.72798  eV     1   --> A              
     e( 44 - 44) =     29.07040  eV     1   --> A              
     e( 45 - 45) =     30.95260  eV     1   --> A              
     e( 46 - 46) =     32.11254  eV     1   --> A              
     e( 47 - 47) =     32.15671  eV     1   --> A              
     e( 48 - 48) =     32.64329  eV     1   --> A              
     e( 49 - 49) =     33.39942  eV     1   --> A              
     e( 50 - 50) =     35.02329  eV     1   --> A              

 **************************************************************************

 **************************************************************************

                    xk=(   0.00000,   0.17500,   0.00000  )

     Band symmetry, C_1 (1)     point group:

     e(  1 -  1) =    -46.91779  eV     1   --> A              
     e(  2 -  2) =    -46.89955  eV     1   --> A              
     e(  3 -  3) =    -23.58742  eV     1   --> A              
     e(  4 -  4) =    -23.58617  eV     1   --> A              
     e(  5 -  5) =    -23.42070  eV     1   --> A              
     e(  6 -  6) =    -23.41939  eV     1   --> A              
     e(  7 -  7) =    -23.35991  eV     1   --> A              
     e(  8 -  8) =    -23.32345  eV     1   --> A              
     e(  9 -  9) =     -8.71464  eV     1   --> A              
     e( 10 - 10) =     -7.55285  eV     1   --> A              
     e( 11 - 11) =     -6.83469  eV     1   --> A              
     e( 12 - 12) =     -6.75939  eV     1   --> A              
     e( 13 - 13) =      3.45361  eV     1   --> A              
     e( 14 - 14) =      3.79467  eV     1   --> A              
     e( 15 - 15) =      4.18641  eV     1   --> A              
     e( 16 - 16) =      5.30575  eV     1   --> A              
     e( 17 - 17) =      5.31551  eV     1   --> A              
     e( 18 - 18) =      6.37516  eV     1   --> A              
     e( 19 - 19) =      6.52504  eV     1   --> A              
     e( 20 - 20) =      7.22016  eV     1   --> A              
     e( 21 - 21) =      8.19896  eV     1   --> A              
     e( 22 - 22) =      8.32487  eV     1   --> A              
     e( 23 - 23) =      8.51144  eV     1   --> A              
     e( 24 - 24) =      9.11816  eV     1   --> A              
     e( 25 - 25) =     11.26716  eV     1   --> A              
     e( 26 - 26) =     11.59205  eV     1   --> A              
     e( 27 - 27) =     11.90264  eV     1   --> A              
     e( 28 - 28) =     11.91463  eV     1   --> A              
     e( 29 - 29) =     11.96694  eV     1   --> A              
     e( 30 - 30) =     13.84248  eV     1   --> A              
     e( 31 - 31) =     14.17426  eV     1   --> A              
     e( 32 - 32) =     16.02379  eV     1   --> A              
     e( 33 - 33) =     16.04736  eV     1   --> A              
     e( 34 - 34) =     17.01545  eV     1   --> A              
     e( 35 - 35) =     17.54250  eV     1   --> A              
     e( 36 - 36) =     20.74640  eV     1   --> A              
     e( 37 - 37) =     21.06622  eV     1   --> A              
     e( 38 - 38) =     23.67405  eV     1   --> A              
     e( 39 - 39) =     24.67068  eV     1   --> A              
     e( 40 - 40) =     25.59106  eV     1   --> A              
     e( 41 - 41) =     27.52722  eV     1   --> A              
     e( 42 - 42) =     28.64286  eV     1   --> A              
     e( 43 - 43) =     28.80557  eV     1   --> A              
     e( 44 - 44) =     29.15022  eV     1   --> A              
     e( 45 - 45) =     31.02824  eV     1   --> A              
     e( 46 - 46) =     31.89965  eV     1   --> A              
     e( 47 - 47) =     32.11274  eV     1   --> A              
     e( 48 - 48) =     32.30419  eV     1   --> A              
     e( 49 - 49) =     33.42599  eV     1   --> A              
     e( 50 - 50) =     35.01080  eV     1   --> A              

 **************************************************************************

 **************************************************************************

                    xk=(   0.00000,   0.20000,   0.00000  )

     Band symmetry, C_1 (1)     point group:

     e(  1 -  1) =    -46.91732  eV     1   --> A              
     e(  2 -  2) =    -46.90001  eV     1   --> A              
     e(  3 -  3) =    -23.58391  eV     1   --> A              
     e(  4 -  4) =    -23.58233  eV     1   --> A              
     e(  5 -  5) =    -23.42497  eV     1   --> A              
     e(  6 -  6) =    -23.42332  eV     1   --> A              
     e(  7 -  7) =    -23.35898  eV     1   --> A              
     e(  8 -  8) =    -23.32438  eV     1   --> A              
     e(  9 -  9) =     -8.67902  eV     1   --> A              
     e( 10 - 10) =     -7.55693  eV     1   --> A              
     e( 11 - 11) =     -6.86670  eV     1   --> A              
     e( 12 - 12) =     -6.77380  eV     1   --> A              
     e( 13 - 13) =      3.50934  eV     1   --> A              
     e( 14 - 14) =      3.83151  eV     1   --> A              
     e( 15 - 15) =      4.25631  eV     1   --> A              
     e( 16 - 16) =      5.30970  eV     1   --> A              
     e( 17 - 17) =      5.32152  eV     1   --> A              
     e( 18 - 18) =      6.32194  eV     1   --> A              
     e( 19 - 19) =      6.50377  eV     1   --> A              
     e( 20 - 20) =      7.22577  eV     1   --> A              
     e( 21 - 21) =      8.05140  eV     1   --> A              
     e( 22 - 22) =      8.26897  eV     1   --> A              
     e( 23 - 23) =      8.46003  eV     1   --> A              
     e( 24 - 24) =      9.07972  eV     1   --> A              
     e( 25 - 25) =     11.31225  eV     1   --> A              
     e( 26 - 26) =     11.63802  eV     1   --> A              
     e( 27 - 27) =     11.95105  eV     1   --> A              
     e( 28 - 28) =     11.96557  eV     1   --> A              
     e( 29 - 29) =     12.01339  eV     1   --> A              
     e( 30 - 30) =     13.79287  eV     1   --> A              
     e( 31 - 31) =     14.24748  eV     1   --> A              
     e( 32 - 32) =     15.99390  eV     1   --> A              
     e( 33 - 33) =     16.02262  eV     1   --> A              
     e( 34 - 34) =     16.94980  eV     1   --> A              
     e( 35 - 35) =     17.65240  eV     1   --> A              
     e( 36 - 36) =     20.71078  eV     1   --> A              
     e( 37 - 37) =     21.14202  eV     1   --> A              
     e( 38 - 38) =     23.68411  eV     1   --> A              
     e( 39 - 39) =     24.61418  eV     1   --> A              
     e( 40 - 40) =     25.55419  eV     1   --> A              
     e( 41 - 41) =     27.49084  eV     1   --> A              
     e( 42 - 42) =     28.63022  eV     1   --> A              
     e( 43 - 43) =     28.89426  eV     1   --> A              
     e( 44 - 44) =     29.20846  eV     1   --> A              
     e( 45 - 45) =     31.11405  eV     1   --> A              
     e( 46 - 46) =     31.71519  eV     1   --> A              
     e( 47 - 47) =     31.98985  eV     1   --> A              
     e( 48 - 48) =     32.05968  eV     1   --> A              
     e( 49 - 49) =     33.45417  eV     1   --> A              
     e( 50 - 50) =     34.83644  eV     1   --> A              

 **************************************************************************

 **************************************************************************

                    xk=(   0.00000,   0.22500,   0.00000  )

     Band symmetry, C_1 (1)     point group:

     e(  1 -  1) =    -46.91679  eV     1   --> A              
     e(  2 -  2) =    -46.90053  eV     1   --> A              
     e(  3 -  3) =    -23.57998  eV     1   --> A              
     e(  4 -  4) =    -23.57807  eV     1   --> A              
     e(  5 -  5) =    -23.42967  eV     1   --> A              
     e(  6 -  6) =    -23.42767  eV     1   --> A              
     e(  7 -  7) =    -23.35794  eV     1   --> A              
     e(  8 -  8) =    -23.32541  eV     1   --> A              
     e(  9 -  9) =     -8.63921  eV     1   --> A              
     e( 10 - 10) =     -7.56393  eV     1   --> A              
     e( 11 - 11) =     -6.89924  eV     1   --> A              
     e( 12 - 12) =     -6.78963  eV     1   --> A              
     e( 13 - 13) =      3.56837  eV     1   --> A              
     e( 14 - 14) =      3.87112  eV     1   --> A              
     e( 15 - 15) =      4.33691  eV     1   --> A              
     e( 16 - 16) =      5.31403  eV     1   --> A              
     e( 17 - 17) =      5.32772  eV     1   --> A              
     e( 18 - 18) =      6.26621  eV     1   --> A              
     e( 19 - 19) =      6.47732  eV     1   --> A              
     e( 20 - 20) =      7.23341  eV     1   --> A              
     e( 21 - 21) =      7.89373  eV     1   --> A              
     e( 22 - 22) =      8.20936  eV     1   --> A              
     e( 23 - 23) =      8.41267  eV     1   --> A              
     e( 24 - 24) =      9.03663  eV     1   --> A              
     e( 25 - 25) =     11.35934  eV     1   --> A              
     e( 26 - 26) =     11.68157  eV     1   --> A              
     e( 27 - 27) =     11.99022  eV     1   --> A              
     e( 28 - 28) =     12.03300  eV     1   --> A              
     e( 29 - 29) =     12.06130  eV     1   --> A              
     e( 30 - 30) =     13.73808  eV     1   --> A              
     e( 31 - 31) =     14.33024  eV     1   --> A              
     e( 32 - 32) =     15.96250  eV     1   --> A              
     e( 33 - 33) =     15.99591  eV     1   --> A              
     e( 34 - 34) =     16.87611  eV     1   --> A              
     e( 35 - 35) =     17.77259  eV     1   --> A              
     e( 36 - 36) =     20.66458  eV     1   --> A              
     e( 37 - 37) =     21.22791  eV     1   --> A              
     e( 38 - 38) =     23.69224  eV     1   --> A              
     e( 39 - 39) =     24.55868  eV     1   --> A              
     e( 40 - 40) =     25.51674  eV     1   --> A              
     e( 41 - 41) =     27.45593  eV     1   --> A              
     e( 42 - 42) =     28.62125  eV     1   --> A              
     e( 43 - 43) =     28.99370  eV     1   --> A              
     e( 44 - 44) =     29.23026  eV     1   --> A              
     e( 45 - 45) =     31.20948  eV     1   --> A              
     e( 46 - 46) =     31.52944  eV     1   --> A              
     e( 47 - 47) =     31.74636  eV     1   --> A              
     e( 48 - 48) =     31.99668  eV     1   --> A              
     e( 49 - 49) =     33.48285  eV     1   --> A              
     e( 50 - 50) =     34.65438  eV     1   --> A              

 **************************************************************************

 **************************************************************************

                    xk=(   0.00000,   0.25000,   0.00000  )

     Band symmetry, C_1 (1)     point group:

     e(  1 -  1) =    -46.91621  eV     1   --> A              
     e(  2 -  2) =    -46.90109  eV     1   --> A              
     e(  3 -  3) =    -23.57569  eV     1   --> A              
     e(  4 -  4) =    -23.57344  eV     1   --> A              
     e(  5 -  5) =    -23.43476  eV     1   --> A              
     e(  6 -  6) =    -23.43241  eV     1   --> A              
     e(  7 -  7) =    -23.35679  eV     1   --> A              
     e(  8 -  8) =    -23.32654  eV     1   --> A              
     e(  9 -  9) =     -8.59541  eV     1   --> A              
     e( 10 - 10) =     -7.57490  eV     1   --> A              
     e( 11 - 11) =     -6.93084  eV     1   --> A              
     e( 12 - 12) =     -6.80673  eV     1   --> A              
     e( 13 - 13) =      3.62952  eV     1   --> A              
     e( 14 - 14) =      3.91259  eV     1   --> A              
     e( 15 - 15) =      4.42836  eV     1   --> A              
     e( 16 - 16) =      5.31865  eV     1   --> A              
     e( 17 - 17) =      5.33389  eV     1   --> A              
     e( 18 - 18) =      6.20942  eV     1   --> A              
     e( 19 - 19) =      6.44533  eV     1   --> A              
     e( 20 - 20) =      7.24346  eV     1   --> A              
     e( 21 - 21) =      7.72772  eV     1   --> A              
     e( 22 - 22) =      8.14698  eV     1   --> A              
     e( 23 - 23) =      8.37153  eV     1   --> A              
     e( 24 - 24) =      8.98945  eV     1   --> A              
     e( 25 - 25) =     11.40751  eV     1   --> A              
     e( 26 - 26) =     11.72127  eV     1   --> A              
     e( 27 - 27) =     12.03137  eV     1   --> A              
     e( 28 - 28) =     12.10419  eV     1   --> A              
     e( 29 - 29) =     12.10926  eV     1   --> A              
     e( 30 - 30) =     13.67855  eV     1   --> A              
     e( 31 - 31) =     14.42204  eV     1   --> A              
     e( 32 - 32) =     15.93022  eV     1   --> A              
     e( 33 - 33) =     15.96766  eV     1   --> A              
     e( 34 - 34) =     16.79463  eV     1   --> A              
     e( 35 - 35) =     17.90181  eV     1   --> A              
     e( 36 - 36) =     20.60677  eV     1   --> A              
     e( 37 - 37) =     21.32362  eV     1   --> A              
     e( 38 - 38) =     23.69348  eV     1   --> A              
     e( 39 - 39) =     24.51002  eV     1   --> A              
     e( 40 - 40) =     25.47898  eV     1   --> A              
     e( 41 - 41) =     27.42444  eV     1   --> A              
     e( 42 - 42) =     28.61750  eV     1   --> A              
     e( 43 - 43) =     29.10335  eV     1   --> A              
     e( 44 - 44) =     29.20384  eV     1   --> A              
     e( 45 - 45) =     31.27869  eV     1   --> A              
     e( 46 - 46) =     31.31382  eV     1   --> A              
     e( 47 - 47) =     31.64982  eV     1   --> A              
     e( 48 - 48) =     31.92298  eV     1   --> A              
     e( 49 - 49) =     33.51066  eV     1   --> A              
     e( 50 - 50) =     34.46768  eV     1   --> A              

 **************************************************************************

 **************************************************************************

                    xk=(   0.00000,   0.27500,   0.00000  )

     Band symmetry, C_1 (1)     point group:

     e(  1 -  1) =    -46.91559  eV     1   --> A              
     e(  2 -  2) =    -46.90170  eV     1   --> A              
     e(  3 -  3) =    -23.57106  eV     1   --> A              
     e(  4 -  4) =    -23.56848  eV     1   --> A              
     e(  5 -  5) =    -23.44017  eV     1   --> A              
     e(  6 -  6) =    -23.43750  eV     1   --> A              
     e(  7 -  7) =    -23.35555  eV     1   --> A              
     e(  8 -  8) =    -23.32777  eV     1   --> A              
     e(  9 -  9) =     -8.54786  eV     1   --> A              
     e( 10 - 10) =     -7.59095  eV     1   --> A              
     e( 11 - 11) =     -6.95994  eV     1   --> A              
     e( 12 - 12) =     -6.82490  eV     1   --> A              
     e( 13 - 13) =      3.69167  eV     1   --> A              
     e( 14 - 14) =      3.95482  eV     1   --> A              
     e( 15 - 15) =      4.53066  eV     1   --> A              
     e( 16 - 16) =      5.32350  eV     1   --> A              
     e( 17 - 17) =      5.33984  eV     1   --> A              
     e( 18 - 18) =      6.15311  eV     1   --> A              
     e( 19 - 19) =      6.40774  eV     1   --> A              
     e( 20 - 20) =      7.25627  eV     1   --> A              
     e( 21 - 21) =      7.55507  eV     1   --> A              
     e( 22 - 22) =      8.08272  eV     1   --> A              
     e( 23 - 23) =      8.33831  eV     1   --> A              
     e( 24 - 24) =      8.93884  eV     1   --> A              
     e( 25 - 25) =     11.45591  eV     1   --> A              
     e( 26 - 26) =     11.75609  eV     1   --> A              
     e( 27 - 27) =     12.07371  eV     1   --> A              
     e( 28 - 28) =     12.15604  eV     1   --> A              
     e( 29 - 29) =     12.17854  eV     1   --> A              
     e( 30 - 30) =     13.61475  eV     1   --> A              
     e( 31 - 31) =     14.52228  eV     1   --> A              
     e( 32 - 32) =     15.89802  eV     1   --> A              
     e( 33 - 33) =     15.93847  eV     1   --> A              
     e( 34 - 34) =     16.70573  eV     1   --> A              
     e( 35 - 35) =     18.03881  eV     1   --> A              
     e( 36 - 36) =     20.53673  eV     1   --> A              
     e( 37 - 37) =     21.42886  eV     1   --> A              
     e( 38 - 38) =     23.68070  eV     1   --> A              
     e( 39 - 39) =     24.47575  eV     1   --> A              
     e( 40 - 40) =     25.44082  eV     1   --> A              
     e( 41 - 41) =     27.39833  eV     1   --> A              
     e( 42 - 42) =     28.62052  eV     1   --> A              
     e( 43 - 43) =     29.12596  eV     1   --> A              
     e( 44 - 44) =     29.22272  eV     1   --> A              
     e( 45 - 45) =     31.00463  eV     1   --> A              
     e( 46 - 46) =     31.42642  eV     1   --> A              
     e( 47 - 47) =     31.66188  eV     1   --> A              
     e( 48 - 48) =     31.83792  eV     1   --> A              
     e( 49 - 49) =     33.53600  eV     1   --> A              
     e( 50 - 50) =     34.27902  eV     1   --> A              

 **************************************************************************

 **************************************************************************

                    xk=(   0.00000,   0.30000,   0.00000  )

     Band symmetry, C_1 (1)     point group:

     e(  1 -  1) =    -46.91493  eV     1   --> A              
     e(  2 -  2) =    -46.90236  eV     1   --> A              
     e(  3 -  3) =    -23.56612  eV     1   --> A              
     e(  4 -  4) =    -23.56325  eV     1   --> A              
     e(  5 -  5) =    -23.44584  eV     1   --> A              
     e(  6 -  6) =    -23.44286  eV     1   --> A              
     e(  7 -  7) =    -23.35423  eV     1   --> A              
     e(  8 -  8) =    -23.32908  eV     1   --> A              
     e(  9 -  9) =     -8.49683  eV     1   --> A              
     e( 10 - 10) =     -7.61311  eV     1   --> A              
     e( 11 - 11) =     -6.98507  eV     1   --> A              
     e( 12 - 12) =     -6.84392  eV     1   --> A              
     e( 13 - 13) =      3.75380  eV     1   --> A              
     e( 14 - 14) =      3.99656  eV     1   --> A              
     e( 15 - 15) =      4.64355  eV     1   --> A              
     e( 16 - 16) =      5.32849  eV     1   --> A              
     e( 17 - 17) =      5.34539  eV     1   --> A              
     e( 18 - 18) =      6.09891  eV     1   --> A              
     e( 19 - 19) =      6.36492  eV     1   --> A              
     e( 20 - 20) =      7.27220  eV     1   --> A              
     e( 21 - 21) =      7.37731  eV     1   --> A              
     e( 22 - 22) =      8.01743  eV     1   --> A              
     e( 23 - 23) =      8.31423  eV     1   --> A              
     e( 24 - 24) =      8.88546  eV     1   --> A              
     e( 25 - 25) =     11.50379  eV     1   --> A              
     e( 26 - 26) =     11.78529  eV     1   --> A              
     e( 27 - 27) =     12.11637  eV     1   --> A              
     e( 28 - 28) =     12.20042  eV     1   --> A              
     e( 29 - 29) =     12.25554  eV     1   --> A              
     e( 30 - 30) =     13.54714  eV     1   --> A              
     e( 31 - 31) =     14.63020  eV     1   --> A              
     e( 32 - 32) =     15.86678  eV     1   --> A              
     e( 33 - 33) =     15.90895  eV     1   --> A              
     e( 34 - 34) =     16.60980  eV     1   --> A              
     e( 35 - 35) =     18.18238  eV     1   --> A              
     e( 36 - 36) =     20.45428  eV     1   --> A              
     e( 37 - 37) =     21.54321  eV     1   --> A              
     e( 38 - 38) =     23.64634  eV     1   --> A              
     e( 39 - 39) =     24.46352  eV     1   --> A              
     e( 40 - 40) =     25.40197  eV     1   --> A              
     e( 41 - 41) =     27.37956  eV     1   --> A              
     e( 42 - 42) =     28.63184  eV     1   --> A              
     e( 43 - 43) =     29.00346  eV     1   --> A              
     e( 44 - 44) =     29.35127  eV     1   --> A              
     e( 45 - 45) =     30.73737  eV     1   --> A              
     e( 46 - 46) =     31.54660  eV     1   --> A              
     e( 47 - 47) =     31.74104  eV     1   --> A              
     e( 48 - 48) =     31.74534  eV     1   --> A              
     e( 49 - 49) =     33.55687  eV     1   --> A              
     e( 50 - 50) =     34.09056  eV     1   --> A              

 **************************************************************************

 **************************************************************************

                    xk=(   0.00000,   0.32500,   0.00000  )

     Band symmetry, C_1 (1)     point group:

     e(  1 -  1) =    -46.91422  eV     1   --> A              
     e(  2 -  2) =    -46.90305  eV     1   --> A              
     e(  3 -  3) =    -23.56095  eV     1   --> A              
     e(  4 -  4) =    -23.55782  eV     1   --> A              
     e(  5 -  5) =    -23.45168  eV     1   --> A              
     e(  6 -  6) =    -23.44845  eV     1   --> A              
     e(  7 -  7) =    -23.35283  eV     1   --> A              
     e(  8 -  8) =    -23.33047  eV     1   --> A              
     e(  9 -  9) =     -8.44261  eV     1   --> A              
     e( 10 - 10) =     -7.64213  eV     1   --> A              
     e( 11 - 11) =     -7.00503  eV     1   --> A              
     e( 12 - 12) =     -6.86359  eV     1   --> A              
     e( 13 - 13) =      3.81494  eV     1   --> A              
     e( 14 - 14) =      4.03634  eV     1   --> A              
     e( 15 - 15) =      4.76655  eV     1   --> A              
     e( 16 - 16) =      5.33354  eV     1   --> A              
     e( 17 - 17) =      5.35037  eV     1   --> A              
     e( 18 - 18) =      6.04847  eV     1   --> A              
     e( 19 - 19) =      6.31768  eV     1   --> A              
     e( 20 - 20) =      7.19591  eV     1   --> A              
     e( 21 - 21) =      7.29158  eV     1   --> A              
     e( 22 - 22) =      7.95189  eV     1   --> A              
     e( 23 - 23) =      8.29996  eV     1   --> A              
     e( 24 - 24) =      8.83002  eV     1   --> A              
     e( 25 - 25) =     11.55047  eV     1   --> A              
     e( 26 - 26) =     11.80842  eV     1   --> A              
     e( 27 - 27) =     12.15844  eV     1   --> A              
     e( 28 - 28) =     12.24123  eV     1   --> A              
     e( 29 - 29) =     12.33470  eV     1   --> A              
     e( 30 - 30) =     13.47616  eV     1   --> A              
     e( 31 - 31) =     14.74490  eV     1   --> A              
     e( 32 - 32) =     15.83744  eV     1   --> A              
     e( 33 - 33) =     15.87982  eV     1   --> A              
     e( 34 - 34) =     16.50728  eV     1   --> A              
     e( 35 - 35) =     18.33135  eV     1   --> A              
     e( 36 - 36) =     20.35967  eV     1   --> A              
     e( 37 - 37) =     21.66609  eV     1   --> A              
     e( 38 - 38) =     23.58592  eV     1   --> A              
     e( 39 - 39) =     24.47742  eV     1   --> A              
     e( 40 - 40) =     25.36186  eV     1   --> A              
     e( 41 - 41) =     27.37008  eV     1   --> A              
     e( 42 - 42) =     28.65290  eV     1   --> A              
     e( 43 - 43) =     28.84902  eV     1   --> A              
     e( 44 - 44) =     29.48826  eV     1   --> A              
     e( 45 - 45) =     30.48366  eV     1   --> A              
     e( 46 - 46) =     31.63220  eV     1   --> A              
     e( 47 - 47) =     31.67361  eV     1   --> A              
     e( 48 - 48) =     31.88011  eV     1   --> A              
     e( 49 - 49) =     33.57081  eV     1   --> A              
     e( 50 - 50) =     33.90400  eV     1   --> A              

 **************************************************************************

 **************************************************************************

                    xk=(   0.00000,   0.35000,   0.00000  )

     Band symmetry, C_1 (1)     point group:

     e(  1 -  1) =    -46.91348  eV     1   --> A              
     e(  2 -  2) =    -46.90378  eV     1   --> A              
     e(  3 -  3) =    -23.55561  eV     1   --> A              
     e(  4 -  4) =    -23.55229  eV     1   --> A              
     e(  5 -  5) =    -23.45759  eV     1   --> A              
     e(  6 -  6) =    -23.45418  eV     1   --> A              
     e(  7 -  7) =    -23.35134  eV     1   --> A              
     e(  8 -  8) =    -23.33194  eV     1   --> A              
     e(  9 -  9) =     -8.38556  eV     1   --> A              
     e( 10 - 10) =     -7.67830  eV     1   --> A              
     e( 11 - 11) =     -7.01912  eV     1   --> A              
     e( 12 - 12) =     -6.88365  eV     1   --> A              
     e( 13 - 13) =      3.87416  eV     1   --> A              
     e( 14 - 14) =      4.07254  eV     1   --> A              
     e( 15 - 15) =      4.89897  eV     1   --> A              
     e( 16 - 16) =      5.33852  eV     1   --> A              
     e( 17 - 17) =      5.35462  eV     1   --> A              
     e( 18 - 18) =      6.00344  eV     1   --> A              
     e( 19 - 19) =      6.26736  eV     1   --> A              
     e( 20 - 20) =      7.01232  eV     1   --> A              
     e( 21 - 21) =      7.31463  eV     1   --> A              
     e( 22 - 22) =      7.88679  eV     1   --> A              
     e( 23 - 23) =      8.29567  eV     1   --> A              
     e( 24 - 24) =      8.77325  eV     1   --> A              
     e( 25 - 25) =     11.59533  eV     1   --> A              
     e( 26 - 26) =     11.82521  eV     1   --> A              
     e( 27 - 27) =     12.19895  eV     1   --> A              
     e( 28 - 28) =     12.27739  eV     1   --> A              
     e( 29 - 29) =     12.41561  eV     1   --> A              
     e( 30 - 30) =     13.40222  eV     1   --> A              
     e( 31 - 31) =     14.86545  eV     1   --> A              
     e( 32 - 32) =     15.81074  eV     1   --> A              
     e( 33 - 33) =     15.85167  eV     1   --> A              
     e( 34 - 34) =     16.39866  eV     1   --> A              
     e( 35 - 35) =     18.48457  eV     1   --> A              
     e( 36 - 36) =     20.25350  eV     1   --> A              
     e( 37 - 37) =     21.79674  eV     1   --> A              
     e( 38 - 38) =     23.49997  eV     1   --> A              
     e( 39 - 39) =     24.51607  eV     1   --> A              
     e( 40 - 40) =     25.31957  eV     1   --> A              
     e( 41 - 41) =     27.37183  eV     1   --> A              
     e( 42 - 42) =     28.67592  eV     1   --> A              
     e( 43 - 43) =     28.68508  eV     1   --> A              
     e( 44 - 44) =     29.63287  eV     1   --> A              
     e( 45 - 45) =     30.24558  eV     1   --> A              
     e( 46 - 46) =     31.51160  eV     1   --> A              
     e( 47 - 47) =     31.80674  eV     1   --> A              
     e( 48 - 48) =     32.04975  eV     1   --> A              
     e( 49 - 49) =     33.57477  eV     1   --> A              
     e( 50 - 50) =     33.72051  eV     1   --> A              

 **************************************************************************

 **************************************************************************

                    xk=(   0.00000,   0.37500,   0.00000  )

     Band symmetry, C_1 (1)     point group:

     e(  1 -  1) =    -46.91272  eV     1   --> A              
     e(  2 -  2) =    -46.90454  eV     1   --> A              
     e(  3 -  3) =    -23.55020  eV     1   --> A              
     e(  4 -  4) =    -23.54680  eV     1   --> A              
     e(  5 -  5) =    -23.46342  eV     1   --> A              
     e(  6 -  6) =    -23.45994  eV     1   --> A              
     e(  7 -  7) =    -23.34983  eV     1   --> A              
     e(  8 -  8) =    -23.33346  eV     1   --> A              
     e(  9 -  9) =     -8.32603  eV     1   --> A              
     e( 10 - 10) =     -7.72136  eV     1   --> A              
     e( 11 - 11) =     -7.02715  eV     1   --> A              
     e( 12 - 12) =     -6.90384  eV     1   --> A              
     e( 13 - 13) =      3.93049  eV     1   --> A              
     e( 14 - 14) =      4.10346  eV     1   --> A              
     e( 15 - 15) =      5.03989  eV     1   --> A              
     e( 16 - 16) =      5.34334  eV     1   --> A              
     e( 17 - 17) =      5.35803  eV     1   --> A              
     e( 18 - 18) =      5.96528  eV     1   --> A              
     e( 19 - 19) =      6.21575  eV     1   --> A              
     e( 20 - 20) =      6.82804  eV     1   --> A              
     e( 21 - 21) =      7.34160  eV     1   --> A              
     e( 22 - 22) =      7.82278  eV     1   --> A              
     e( 23 - 23) =      8.30116  eV     1   --> A              
     e( 24 - 24) =      8.71593  eV     1   --> A              
     e( 25 - 25) =     11.63778  eV     1   --> A              
     e( 26 - 26) =     11.83567  eV     1   --> A              
     e( 27 - 27) =     12.23692  eV     1   --> A              
     e( 28 - 28) =     12.30799  eV     1   --> A              
     e( 29 - 29) =     12.49788  eV     1   --> A              
     e( 30 - 30) =     13.32574  eV     1   --> A              
     e( 31 - 31) =     14.99074  eV     1   --> A              
     e( 32 - 32) =     15.78760  eV     1   --> A              
     e( 33 - 33) =     15.82525  eV     1   --> A              
     e( 34 - 34) =     16.28445  eV     1   --> A              
     e( 35 - 35) =     18.64096  eV     1   --> A              
     e( 36 - 36) =     20.13663  eV     1   --> A              
     e( 37 - 37) =     21.93432  eV     1   --> A              
     e( 38 - 38) =     23.39271  eV     1   --> A              
     e( 39 - 39) =     24.57436  eV     1   --> A              
     e( 40 - 40) =     25.27417  eV     1   --> A              
     e( 41 - 41) =     27.38676  eV     1   --> A              
     e( 42 - 42) =     28.49538  eV     1   --> A              
     e( 43 - 43) =     28.72962  eV     1   --> A              
     e( 44 - 44) =     29.78426  eV     1   --> A              
     e( 45 - 45) =     30.02397  eV     1   --> A              
     e( 46 - 46) =     31.37993  eV     1   --> A              
     e( 47 - 47) =     31.94530  eV     1   --> A              
     e( 48 - 48) =     32.24073  eV     1   --> A              
     e( 49 - 49) =     33.54073  eV     1   --> A              
     e( 50 - 50) =     33.56513  eV     1   --> A              

 **************************************************************************

 **************************************************************************

                    xk=(   0.00000,   0.40000,   0.00000  )

     Band symmetry, C_1 (1)     point group:

     e(  1 -  1) =    -46.91193  eV     1   --> A              
     e(  2 -  2) =    -46.90532  eV     1   --> A              
     e(  3 -  3) =    -23.54486  eV     1   --> A              
     e(  4 -  4) =    -23.54152  eV     1   --> A              
     e(  5 -  5) =    -23.46898  eV     1   --> A              
     e(  6 -  6) =    -23.46558  eV     1   --> A              
     e(  7 -  7) =    -23.34825  eV     1   --> A              
     e(  8 -  8) =    -23.33503  eV     1   --> A              
     e(  9 -  9) =     -8.26446  eV     1   --> A              
     e( 10 - 10) =     -7.77060  eV     1   --> A              
     e( 11 - 11) =     -7.02947  eV     1   --> A              
     e( 12 - 12) =     -6.92387  eV     1   --> A              
     e( 13 - 13) =      3.98289  eV     1   --> A              
     e( 14 - 14) =      4.12739  eV     1   --> A              
     e( 15 - 15) =      5.18814  eV     1   --> A              
     e( 16 - 16) =      5.34787  eV     1   --> A              
     e( 17 - 17) =      5.36052  eV     1   --> A              
     e( 18 - 18) =      5.93495  eV     1   --> A              
     e( 19 - 19) =      6.16520  eV     1   --> A              
     e( 20 - 20) =      6.64492  eV     1   --> A              
     e( 21 - 21) =      7.37261  eV     1   --> A              
     e( 22 - 22) =      7.76045  eV     1   --> A              
     e( 23 - 23) =      8.31585  eV     1   --> A              
     e( 24 - 24) =      8.65886  eV     1   --> A              
     e( 25 - 25) =     11.67735  eV     1   --> A              
     e( 26 - 26) =     11.83983  eV     1   --> A              
     e( 27 - 27) =     12.27144  eV     1   --> A              
     e( 28 - 28) =     12.33226  eV     1   --> A              
     e( 29 - 29) =     12.58117  eV     1   --> A              
     e( 30 - 30) =     13.24712  eV     1   --> A              
     e( 31 - 31) =     15.11975  eV     1   --> A              
     e( 32 - 32) =     15.76870  eV     1   --> A              
     e( 33 - 33) =     15.80135  eV     1   --> A              
     e( 34 - 34) =     16.16526  eV     1   --> A              
     e( 35 - 35) =     18.79943  eV     1   --> A              
     e( 36 - 36) =     20.01015  eV     1   --> A              
     e( 37 - 37) =     22.07784  eV     1   --> A              
     e( 38 - 38) =     23.26908  eV     1   --> A              
     e( 39 - 39) =     24.64608  eV     1   --> A              
     e( 40 - 40) =     25.22462  eV     1   --> A              
     e( 41 - 41) =     27.41675  eV     1   --> A              
     e( 42 - 42) =     28.31605  eV     1   --> A              
     e( 43 - 43) =     28.78762  eV     1   --> A              
     e( 44 - 44) =     29.81923  eV     1   --> A              
     e( 45 - 45) =     29.94142  eV     1   --> A              
     e( 46 - 46) =     31.23824  eV     1   --> A              
     e( 47 - 47) =     32.08863  eV     1   --> A              
     e( 48 - 48) =     32.44194  eV     1   --> A              
     e( 49 - 49) =     33.36500  eV     1   --> A              
     e( 50 - 50) =     33.53772  eV     1   --> A              

 **************************************************************************

 **************************************************************************

                    xk=(   0.00000,   0.42500,   0.00000  )

     Band symmetry, C_1 (1)     point group:

     e(  1 -  1) =    -46.91112  eV     1   --> A              
     e(  2 -  2) =    -46.90612  eV     1   --> A              
     e(  3 -  3) =    -23.53980  eV     1   --> A              
     e(  4 -  4) =    -23.53676  eV     1   --> A              
     e(  5 -  5) =    -23.47398  eV     1   --> A              
     e(  6 -  6) =    -23.47088  eV     1   --> A              
     e(  7 -  7) =    -23.34662  eV     1   --> A              
     e(  8 -  8) =    -23.33662  eV     1   --> A              
     e(  9 -  9) =     -8.20132  eV     1   --> A              
     e( 10 - 10) =     -7.82499  eV     1   --> A              
     e( 11 - 11) =     -7.02670  eV     1   --> A              
     e( 12 - 12) =     -6.94342  eV     1   --> A              
     e( 13 - 13) =      4.03023  eV     1   --> A              
     e( 14 - 14) =      4.14282  eV     1   --> A              
     e( 15 - 15) =      5.34208  eV     1   --> A              
     e( 16 - 16) =      5.35201  eV     1   --> A              
     e( 17 - 17) =      5.36205  eV     1   --> A              
     e( 18 - 18) =      5.91213  eV     1   --> A              
     e( 19 - 19) =      6.11868  eV     1   --> A              
     e( 20 - 20) =      6.46567  eV     1   --> A              
     e( 21 - 21) =      7.40776  eV     1   --> A              
     e( 22 - 22) =      7.70034  eV     1   --> A              
     e( 23 - 23) =      8.33900  eV     1   --> A              
     e( 24 - 24) =      8.60287  eV     1   --> A              
     e( 25 - 25) =     11.71359  eV     1   --> A              
     e( 26 - 26) =     11.83788  eV     1   --> A              
     e( 27 - 27) =     12.30157  eV     1   --> A              
     e( 28 - 28) =     12.34961  eV     1   --> A              
     e( 29 - 29) =     12.66519  eV     1   --> A              
     e( 30 - 30) =     13.16674  eV     1   --> A              
     e( 31 - 31) =     15.25142  eV     1   --> A              
     e( 32 - 32) =     15.75462  eV     1   --> A              
     e( 33 - 33) =     15.78067  eV     1   --> A              
     e( 34 - 34) =     16.04171  eV     1   --> A              
     e( 35 - 35) =     18.95894  eV     1   --> A              
     e( 36 - 36) =     19.87527  eV     1   --> A              
     e( 37 - 37) =     22.22619  eV     1   --> A              
     e( 38 - 38) =     23.13345  eV     1   --> A              
     e( 39 - 39) =     24.72560  eV     1   --> A              
     e( 40 - 40) =     25.16991  eV     1   --> A              
     e( 41 - 41) =     27.46358  eV     1   --> A              
     e( 42 - 42) =     28.14450  eV     1   --> A              
     e( 43 - 43) =     28.86002  eV     1   --> A              
     e( 44 - 44) =     29.63156  eV     1   --> A              
     e( 45 - 45) =     30.10323  eV     1   --> A              
     e( 46 - 46) =     31.08792  eV     1   --> A              
     e( 47 - 47) =     32.23621  eV     1   --> A              
     e( 48 - 48) =     32.64397  eV     1   --> A              
     e( 49 - 49) =     33.19331  eV     1   --> A              
     e( 50 - 50) =     33.48817  eV     1   --> A              

 **************************************************************************

 **************************************************************************

                    xk=(   0.00000,   0.45000,   0.00000  )

     Band symmetry, C_1 (1)     point group:

     e(  1 -  1) =    -46.91029  eV     1   --> A              
     e(  2 -  2) =    -46.90694  eV     1   --> A              
     e(  3 -  3) =    -23.53535  eV     1   --> A              
     e(  4 -  4) =    -23.53292  eV     1   --> A              
     e(  5 -  5) =    -23.47797  eV     1   --> A              
     e(  6 -  6) =    -23.47551  eV     1   --> A              
     e(  7 -  7) =    -23.34497  eV     1   --> A              
     e(  8 -  8) =    -23.33826  eV     1   --> A              
     e(  9 -  9) =     -8.13713  eV     1   --> A              
     e( 10 - 10) =     -7.88343  eV     1   --> A              
     e( 11 - 11) =     -7.01959  eV     1   --> A              
     e( 12 - 12) =     -6.96213  eV     1   --> A              
     e( 13 - 13) =      4.07124  eV     1   --> A              
     e( 14 - 14) =      4.14858  eV     1   --> A              
     e( 15 - 15) =      5.35561  eV     1   --> A              
     e( 16 - 16) =      5.36258  eV     1   --> A              
     e( 17 - 17) =      5.49893  eV     1   --> A              
     e( 18 - 18) =      5.89303  eV     1   --> A              
     e( 19 - 19) =      6.08036  eV     1   --> A              
     e( 20 - 20) =      6.29597  eV     1   --> A              
     e( 21 - 21) =      7.44703  eV     1   --> A              
     e( 22 - 22) =      7.64290  eV     1   --> A              
     e( 23 - 23) =      8.36970  eV     1   --> A              
     e( 24 - 24) =      8.54878  eV     1   --> A              
     e( 25 - 25) =     11.74602  eV     1   --> A              
     e( 26 - 26) =     11.83005  eV     1   --> A              
     e( 27 - 27) =     12.32640  eV     1   --> A              
     e( 28 - 28) =     12.35963  eV     1   --> A              
     e( 29 - 29) =     12.74954  eV     1   --> A              
     e( 30 - 30) =     13.08491  eV     1   --> A              
     e( 31 - 31) =     15.38468  eV     1   --> A              
     e( 32 - 32) =     15.74573  eV     1   --> A              
     e( 33 - 33) =     15.76388  eV     1   --> A              
     e( 34 - 34) =     15.91449  eV     1   --> A              
     e( 35 - 35) =     19.11839  eV     1   --> A              
     e( 36 - 36) =     19.73322  eV     1   --> A              
     e( 37 - 37) =     22.37803  eV     1   --> A              
     e( 38 - 38) =     22.98930  eV     1   --> A              
     e( 39 - 39) =     24.80821  eV     1   --> A              
     e( 40 - 40) =     25.10920  eV     1   --> A              
     e( 41 - 41) =     27.52877  eV     1   --> A              
     e( 42 - 42) =     27.98552  eV     1   --> A              
     e( 43 - 43) =     28.94765  eV     1   --> A              
     e( 44 - 44) =     29.46101  eV     1   --> A              
     e( 45 - 45) =     30.26831  eV     1   --> A              
     e( 46 - 46) =     30.93064  eV     1   --> A              
     e( 47 - 47) =     32.38748  eV     1   --> A              
     e( 48 - 48) =     32.83849  eV     1   --> A              
     e( 49 - 49) =     33.02542  eV     1   --> A              
     e( 50 - 50) =     33.41266  eV     1   --> A              

 **************************************************************************

 **************************************************************************

                    xk=(   0.00000,   0.47500,   0.00000  )

     Band symmetry, C_1 (1)     point group:

     e(  1 -  1) =    -46.90946  eV     1   --> A              
     e(  2 -  2) =    -46.90777  eV     1   --> A              
     e(  3 -  3) =    -23.53197  eV     1   --> A              
     e(  4 -  4) =    -23.53058  eV     1   --> A              
     e(  5 -  5) =    -23.48041  eV     1   --> A              
     e(  6 -  6) =    -23.47900  eV     1   --> A              
     e(  7 -  7) =    -23.34331  eV     1   --> A              
     e(  8 -  8) =    -23.33993  eV     1   --> A              
     e(  9 -  9) =     -8.07251  eV     1   --> A              
     e( 10 - 10) =     -7.94481  eV     1   --> A              
     e( 11 - 11) =     -7.00892  eV     1   --> A              
     e( 12 - 12) =     -6.97961  eV     1   --> A              
     e( 13 - 13) =      4.10464  eV     1   --> A              
     e( 14 - 14) =      4.14407  eV     1   --> A              
     e( 15 - 15) =      5.35857  eV     1   --> A              
     e( 16 - 16) =      5.36214  eV     1   --> A              
     e( 17 - 17) =      5.65253  eV     1   --> A              
     e( 18 - 18) =      5.86277  eV     1   --> A              
     e( 19 - 19) =      6.05785  eV     1   --> A              
     e( 20 - 20) =      6.15190  eV     1   --> A              
     e( 21 - 21) =      7.49035  eV     1   --> A              
     e( 22 - 22) =      7.58854  eV     1   --> A              
     e( 23 - 23) =      8.40700  eV     1   --> A              
     e( 24 - 24) =      8.49750  eV     1   --> A              
     e( 25 - 25) =     11.77426  eV     1   --> A              
     e( 26 - 26) =     11.81662  eV     1   --> A              
     e( 27 - 27) =     12.34517  eV     1   --> A              
     e( 28 - 28) =     12.36215  eV     1   --> A              
     e( 29 - 29) =     12.83401  eV     1   --> A              
     e( 30 - 30) =     13.00199  eV     1   --> A              
     e( 31 - 31) =     15.51856  eV     1   --> A              
     e( 32 - 32) =     15.74228  eV     1   --> A              
     e( 33 - 33) =     15.75159  eV     1   --> A              
     e( 34 - 34) =     15.78435  eV     1   --> A              
     e( 35 - 35) =     19.27669  eV     1   --> A              
     e( 36 - 36) =     19.58531  eV     1   --> A              
     e( 37 - 37) =     22.53195  eV     1   --> A              
     e( 38 - 38) =     22.83950  eV     1   --> A              
     e( 39 - 39) =     24.89019  eV     1   --> A              
     e( 40 - 40) =     25.04210  eV     1   --> A              
     e( 41 - 41) =     27.61349  eV     1   --> A              
     e( 42 - 42) =     27.84266  eV     1   --> A              
     e( 43 - 43) =     29.05117  eV     1   --> A              
     e( 44 - 44) =     29.30753  eV     1   --> A              
     e( 45 - 45) =     30.43524  eV     1   --> A              
     e( 46 - 46) =     30.76820  eV     1   --> A              
     e( 47 - 47) =     32.54214  eV     1   --> A              
     e( 48 - 48) =     32.86107  eV     1   --> A              
     e( 49 - 49) =     33.01811  eV     1   --> A              
     e( 50 - 50) =     33.30879  eV     1   --> A              

 **************************************************************************

 **************************************************************************

                    xk=(   0.00000,   0.50000,   0.00000  )

     Band symmetry, C_1 (1)     point group:

     e(  1 -  1) =    -46.90873  eV     1   --> A              
     e(  2 -  2) =    -46.90850  eV     1   --> A              
     e(  3 -  3) =    -23.53035  eV     1   --> A              
     e(  4 -  4) =    -23.53014  eV     1   --> A              
     e(  5 -  5) =    -23.48088  eV     1   --> A              
     e(  6 -  6) =    -23.48065  eV     1   --> A              
     e(  7 -  7) =    -23.34173  eV     1   --> A              
     e(  8 -  8) =    -23.34149  eV     1   --> A              
     e(  9 -  9) =     -8.00820  eV     1   --> A              
     e( 10 - 10) =     -8.00808  eV     1   --> A              
     e( 11 - 12) =     -6.99542  eV     2   -->   2 A              
     e( 13 - 14) =      4.12920  eV     2   -->   2 A              
     e( 15 - 15) =      5.36072  eV     1   --> A              
     e( 16 - 16) =      5.36084  eV     1   --> A              
     e( 17 - 18) =      5.78506  eV     2   -->   2 A              
     e( 19 - 20) =      6.07011  eV     2   -->   2 A              
     e( 21 - 22) =      7.53758  eV     2   -->   2 A              
     e( 23 - 23) =      8.44985  eV     1   --> A              
     e( 24 - 24) =      8.44999  eV     1   --> A              
     e( 25 - 25) =     11.79786  eV     1   --> A              
     e( 26 - 26) =     11.79799  eV     1   --> A              
     e( 27 - 27) =     12.35716  eV     1   --> A              
     e( 28 - 28) =     12.35735  eV     1   --> A              
     e( 29 - 29) =     12.91817  eV     1   --> A              
     e( 30 - 30) =     12.91833  eV     1   --> A              
     e( 31 - 31) =     15.65200  eV     1   --> A              
     e( 32 - 32) =     15.65215  eV     1   --> A              
     e( 33 - 33) =     15.74425  eV     1   --> A              
     e( 34 - 34) =     15.74437  eV     1   --> A              
     e( 35 - 36) =     19.43268  eV     2   -->   2 A              
     e( 37 - 38) =     22.68634  eV     2   -->   2 A              
     e( 39 - 40) =     24.96873  eV     2   -->   2 A              
     e( 41 - 42) =     27.71817  eV     2   -->   2 A              
     e( 43 - 44) =     29.17099  eV     2   -->   2 A              
     e( 45 - 46) =     30.60245  eV     2   -->   2 A              
     e( 47 - 48) =     32.69998  eV     2   -->   2 A              
     e( 49 - 50) =     33.17643  eV     2   -->   2 A              

 **************************************************************************

 **************************************************************************

                    xk=(   0.02500,   0.50000,   0.00000  )

     Band symmetry, C_1 (1)     point group:

     e(  1 -  1) =    -46.90873  eV     1   --> A              
     e(  2 -  2) =    -46.90850  eV     1   --> A              
     e(  3 -  3) =    -23.53174  eV     1   --> A              
     e(  4 -  4) =    -23.53154  eV     1   --> A              
     e(  5 -  5) =    -23.47950  eV     1   --> A              
     e(  6 -  6) =    -23.47928  eV     1   --> A              
     e(  7 -  7) =    -23.34175  eV     1   --> A              
     e(  8 -  8) =    -23.34151  eV     1   --> A              
     e(  9 -  9) =     -8.00881  eV     1   --> A              
     e( 10 - 10) =     -8.00869  eV     1   --> A              
     e( 11 - 12) =     -6.99457  eV     2   -->   2 A              
     e( 13 - 14) =      4.12434  eV     2   -->   2 A              
     e( 15 - 15) =      5.35971  eV     1   --> A              
     e( 16 - 16) =      5.35983  eV     1   --> A              
     e( 17 - 18) =      5.77223  eV     2   -->   2 A              
     e( 19 - 20) =      6.09341  eV     2   -->   2 A              
     e( 21 - 22) =      7.53985  eV     2   -->   2 A              
     e( 23 - 23) =      8.44481  eV     1   --> A              
     e( 24 - 24) =      8.44494  eV     1   --> A              
     e( 25 - 25) =     11.79478  eV     1   --> A              
     e( 26 - 26) =     11.79492  eV     1   --> A              
     e( 27 - 27) =     12.35361  eV     1   --> A              
     e( 28 - 28) =     12.35380  eV     1   --> A              
     e( 29 - 29) =     12.92036  eV     1   --> A              
     e( 30 - 30) =     12.92051  eV     1   --> A              
     e( 31 - 31) =     15.64984  eV     1   --> A              
     e( 32 - 32) =     15.65000  eV     1   --> A              
     e( 33 - 33) =     15.74683  eV     1   --> A              
     e( 34 - 34) =     15.74695  eV     1   --> A              
     e( 35 - 36) =     19.43838  eV     2   -->   2 A              
     e( 37 - 38) =     22.68638  eV     2   -->   2 A              
     e( 39 - 40) =     24.95716  eV     2   -->   2 A              
     e( 41 - 42) =     27.71798  eV     2   -->   2 A              
     e( 43 - 44) =     29.18503  eV     2   -->   2 A              
     e( 45 - 46) =     30.60659  eV     2   -->   2 A              
     e( 47 - 48) =     32.69898  eV     2   -->   2 A              
     e( 49 - 50) =     33.15578  eV     2   -->   2 A              

 **************************************************************************

 **************************************************************************

                    xk=(   0.05000,   0.50000,   0.00000  )

     Band symmetry, C_1 (1)     point group:

     e(  1 -  1) =    -46.90873  eV     1   --> A              
     e(  2 -  2) =    -46.90850  eV     1   --> A              
     e(  3 -  3) =    -23.53548  eV     1   --> A              
     e(  4 -  4) =    -23.53531  eV     1   --> A              
     e(  5 -  5) =    -23.47574  eV     1   --> A              
     e(  6 -  6) =    -23.47554  eV     1   --> A              
     e(  7 -  7) =    -23.34175  eV     1   --> A              
     e(  8 -  8) =    -23.34150  eV     1   --> A              
     e(  9 -  9) =     -8.01061  eV     1   --> A              
     e( 10 - 10) =     -8.01050  eV     1   --> A              
     e( 11 - 12) =     -6.99201  eV     2   -->   2 A              
     e( 13 - 14) =      4.10997  eV     2   -->   2 A              
     e( 15 - 15) =      5.35673  eV     1   --> A              
     e( 16 - 16) =      5.35685  eV     1   --> A              
     e( 17 - 18) =      5.74389  eV     2   -->   2 A              
     e( 19 - 20) =      6.15293  eV     2   -->   2 A              
     e( 21 - 22) =      7.54661  eV     2   -->   2 A              
     e( 23 - 23) =      8.42986  eV     1   --> A              
     e( 24 - 24) =      8.42999  eV     1   --> A              
     e( 25 - 25) =     11.78564  eV     1   --> A              
     e( 26 - 26) =     11.78578  eV     1   --> A              
     e( 27 - 27) =     12.34314  eV     1   --> A              
     e( 28 - 28) =     12.34333  eV     1   --> A              
     e( 29 - 29) =     12.92689  eV     1   --> A              
     e( 30 - 30) =     12.92704  eV     1   --> A              
     e( 31 - 31) =     15.64351  eV     1   --> A              
     e( 32 - 32) =     15.64366  eV     1   --> A              
     e( 33 - 33) =     15.75459  eV     1   --> A              
     e( 34 - 34) =     15.75471  eV     1   --> A              
     e( 35 - 36) =     19.45539  eV     2   -->   2 A              
     e( 37 - 38) =     22.68650  eV     2   -->   2 A              
     e( 39 - 40) =     24.92330  eV     2   -->   2 A              
     e( 41 - 42) =     27.71728  eV     2   -->   2 A              
     e( 43 - 44) =     29.22649  eV     2   -->   2 A              
     e( 45 - 46) =     30.61907  eV     2   -->   2 A              
     e( 47 - 48) =     32.69610  eV     2   -->   2 A              
     e( 49 - 50) =     33.09501  eV     2   -->   2 A              

 **************************************************************************

 **************************************************************************

                    xk=(   0.07500,   0.50000,   0.00000  )

     Band symmetry, C_1 (1)     point group:

     e(  1 -  1) =    -46.90873  eV     1   --> A              
     e(  2 -  2) =    -46.90850  eV     1   --> A              
     e(  3 -  3) =    -23.54078  eV     1   --> A              
     e(  4 -  4) =    -23.54063  eV     1   --> A              
     e(  5 -  5) =    -23.47044  eV     1   --> A              
     e(  6 -  6) =    -23.47027  eV     1   --> A              
     e(  7 -  7) =    -23.34175  eV     1   --> A              
     e(  8 -  8) =    -23.34150  eV     1   --> A              
     e(  9 -  9) =     -8.01355  eV     1   --> A              
[...]

     Band symmetry, C_1 (1)     point group:

     e(  1 -  1) =    -46.85805  eV     1   --> A              
     e(  2 -  2) =    -46.85782  eV     1   --> A              
     e(  3 -  3) =    -23.87886  eV     1   --> A              
     e(  4 -  4) =    -23.87402  eV     1   --> A              
     e(  5 -  5) =    -23.43703  eV     1   --> A              
     e(  6 -  6) =    -23.43051  eV     1   --> A              
     e(  7 -  7) =    -23.40251  eV     1   --> A              
     e(  8 -  8) =    -23.40139  eV     1   --> A              
     e(  9 -  9) =     -7.55013  eV     1   --> A              
     e( 10 - 10) =     -7.32011  eV     1   --> A              
     e( 11 - 11) =     -7.18128  eV     1   --> A              
     e( 12 - 12) =     -6.93910  eV     1   --> A              
     e( 13 - 13) =      4.26452  eV     1   --> A              
     e( 14 - 14) =      4.65564  eV     1   --> A              
     e( 15 - 15) =      4.99794  eV     1   --> A              
     e( 16 - 16) =      5.01022  eV     1   --> A              
     e( 17 - 17) =      5.30409  eV     1   --> A              
     e( 18 - 18) =      6.31553  eV     1   --> A              
     e( 19 - 19) =      6.39296  eV     1   --> A              
     e( 20 - 20) =      6.50680  eV     1   --> A              
     e( 21 - 21) =      6.83174  eV     1   --> A              
     e( 22 - 22) =      7.14041  eV     1   --> A              
     e( 23 - 23) =      7.51268  eV     1   --> A              
     e( 24 - 24) =      7.77123  eV     1   --> A              
     e( 25 - 25) =     11.85192  eV     1   --> A              
     e( 26 - 26) =     12.23586  eV     1   --> A              
     e( 27 - 27) =     12.53109  eV     1   --> A              
     e( 28 - 28) =     12.53266  eV     1   --> A              
     e( 29 - 29) =     12.84337  eV     1   --> A              
     e( 30 - 30) =     13.29307  eV     1   --> A              
     e( 31 - 31) =     14.60792  eV     1   --> A              
     e( 32 - 32) =     15.19527  eV     1   --> A              
     e( 33 - 33) =     15.61186  eV     1   --> A              
     e( 34 - 34) =     16.18830  eV     1   --> A              
     e( 35 - 35) =     21.44958  eV     1   --> A              
     e( 36 - 36) =     21.70711  eV     1   --> A              
     e( 37 - 37) =     23.81470  eV     1   --> A              
     e( 38 - 38) =     24.23466  eV     1   --> A              
     e( 39 - 39) =     25.02837  eV     1   --> A              
     e( 40 - 40) =     25.40791  eV     1   --> A              
     e( 41 - 41) =     26.01796  eV     1   --> A              
     e( 42 - 42) =     26.98874  eV     1   --> A              
     e( 43 - 43) =     27.03523  eV     1   --> A              
     e( 44 - 44) =     27.18617  eV     1   --> A              
     e( 45 - 45) =     28.35414  eV     1   --> A              
     e( 46 - 46) =     29.22152  eV     1   --> A              
     e( 47 - 47) =     31.49750  eV     1   --> A              
     e( 48 - 48) =     32.24520  eV     1   --> A              
     e( 49 - 49) =     34.38433  eV     1   --> A              
     e( 50 - 50) =     34.53352  eV     1   --> A              

 **************************************************************************

 **************************************************************************

                    xk=(   0.10000,   0.10000,   0.77806  )

     Band symmetry, C_1 (1)     point group:

     e(  1 -  1) =    -46.85806  eV     1   --> A              
     e(  2 -  2) =    -46.85783  eV     1   --> A              
     e(  3 -  3) =    -23.87710  eV     1   --> A              
     e(  4 -  4) =    -23.87381  eV     1   --> A              
     e(  5 -  5) =    -23.43688  eV     1   --> A              
     e(  6 -  6) =    -23.43243  eV     1   --> A              
     e(  7 -  7) =    -23.40240  eV     1   --> A              
     e(  8 -  8) =    -23.40156  eV     1   --> A              
     e(  9 -  9) =     -7.50232  eV     1   --> A              
     e( 10 - 10) =     -7.31454  eV     1   --> A              
     e( 11 - 11) =     -7.18825  eV     1   --> A              
     e( 12 - 12) =     -6.99204  eV     1   --> A              
     e( 13 - 13) =      4.35457  eV     1   --> A              
     e( 14 - 14) =      4.62383  eV     1   --> A              
     e( 15 - 15) =      5.03906  eV     1   --> A              
     e( 16 - 16) =      5.08682  eV     1   --> A              
     e( 17 - 17) =      5.36916  eV     1   --> A              
     e( 18 - 18) =      6.12920  eV     1   --> A              
     e( 19 - 19) =      6.39373  eV     1   --> A              
     e( 20 - 20) =      6.47672  eV     1   --> A              
     e( 21 - 21) =      6.77406  eV     1   --> A              
     e( 22 - 22) =      6.99199  eV     1   --> A              
     e( 23 - 23) =      7.59505  eV     1   --> A              
     e( 24 - 24) =      7.76947  eV     1   --> A              
     e( 25 - 25) =     11.97555  eV     1   --> A              
     e( 26 - 26) =     12.25849  eV     1   --> A              
     e( 27 - 27) =     12.52890  eV     1   --> A              
     e( 28 - 28) =     12.53078  eV     1   --> A              
     e( 29 - 29) =     12.89727  eV     1   --> A              
     e( 30 - 30) =     13.22900  eV     1   --> A              
     e( 31 - 31) =     14.70136  eV     1   --> A              
     e( 32 - 32) =     15.14748  eV     1   --> A              
     e( 33 - 33) =     15.61247  eV     1   --> A              
     e( 34 - 34) =     16.04866  eV     1   --> A              
     e( 35 - 35) =     21.52067  eV     1   --> A              
     e( 36 - 36) =     21.68629  eV     1   --> A              
     e( 37 - 37) =     24.06422  eV     1   --> A              
     e( 38 - 38) =     24.30061  eV     1   --> A              
     e( 39 - 39) =     24.93820  eV     1   --> A              
     e( 40 - 40) =     25.23937  eV     1   --> A              
     e( 41 - 41) =     26.21307  eV     1   --> A              
     e( 42 - 42) =     26.91078  eV     1   --> A              
     e( 43 - 43) =     27.02612  eV     1   --> A              
     e( 44 - 44) =     27.15898  eV     1   --> A              
     e( 45 - 45) =     28.47581  eV     1   --> A              
     e( 46 - 46) =     29.05077  eV     1   --> A              
     e( 47 - 47) =     31.67666  eV     1   --> A              
     e( 48 - 48) =     32.16592  eV     1   --> A              
     e( 49 - 49) =     34.33741  eV     1   --> A              
     e( 50 - 50) =     34.43275  eV     1   --> A              

 **************************************************************************

 **************************************************************************

                    xk=(   0.07500,   0.07500,   0.77806  )

     Band symmetry, C_1 (1)     point group:

     e(  1 -  1) =    -46.85807  eV     1   --> A              
     e(  2 -  2) =    -46.85784  eV     1   --> A              
     e(  3 -  3) =    -23.87551  eV     1   --> A              
     e(  4 -  4) =    -23.87363  eV     1   --> A              
     e(  5 -  5) =    -23.43676  eV     1   --> A              
     e(  6 -  6) =    -23.43419  eV     1   --> A              
     e(  7 -  7) =    -23.40232  eV     1   --> A              
     e(  8 -  8) =    -23.40174  eV     1   --> A              
     e(  9 -  9) =     -7.44892  eV     1   --> A              
     e( 10 - 10) =     -7.31005  eV     1   --> A              
     e( 11 - 11) =     -7.19385  eV     1   --> A              
     e( 12 - 12) =     -7.04991  eV     1   --> A              
     e( 13 - 13) =      4.43850  eV     1   --> A              
     e( 14 - 14) =      4.59819  eV     1   --> A              
     e( 15 - 15) =      5.08445  eV     1   --> A              
     e( 16 - 16) =      5.16948  eV     1   --> A              
     e( 17 - 17) =      5.42713  eV     1   --> A              
     e( 18 - 18) =      5.94090  eV     1   --> A              
     e( 19 - 19) =      6.39524  eV     1   --> A              
     e( 20 - 20) =      6.44746  eV     1   --> A              
     e( 21 - 21) =      6.72717  eV     1   --> A              
     e( 22 - 22) =      6.86125  eV     1   --> A              
     e( 23 - 23) =      7.66670  eV     1   --> A              
     e( 24 - 24) =      7.76825  eV     1   --> A              
     e( 25 - 25) =     12.09398  eV     1   --> A              
     e( 26 - 26) =     12.27680  eV     1   --> A              
     e( 27 - 27) =     12.52716  eV     1   --> A              
     e( 28 - 28) =     12.52867  eV     1   --> A              
     e( 29 - 29) =     12.94462  eV     1   --> A              
     e( 30 - 30) =     13.15819  eV     1   --> A              
     e( 31 - 31) =     14.80580  eV     1   --> A              
     e( 32 - 32) =     15.10526  eV     1   --> A              
     e( 33 - 33) =     15.61292  eV     1   --> A              
     e( 34 - 34) =     15.90522  eV     1   --> A              
     e( 35 - 35) =     21.57931  eV     1   --> A              
     e( 36 - 36) =     21.67271  eV     1   --> A              
     e( 37 - 37) =     24.28010  eV     1   --> A              
     e( 38 - 38) =     24.37512  eV     1   --> A              
     e( 39 - 39) =     24.86191  eV     1   --> A              
     e( 40 - 40) =     25.08403  eV     1   --> A              
     e( 41 - 41) =     26.38011  eV     1   --> A              
     e( 42 - 42) =     26.79967  eV     1   --> A              
     e( 43 - 43) =     27.05620  eV     1   --> A              
     e( 44 - 44) =     27.13146  eV     1   --> A              
     e( 45 - 45) =     28.57824  eV     1   --> A              
     e( 46 - 46) =     28.91080  eV     1   --> A              
     e( 47 - 47) =     31.82598  eV     1   --> A              
     e( 48 - 48) =     32.10632  eV     1   --> A              
     e( 49 - 49) =     34.28930  eV     1   --> A              
     e( 50 - 50) =     34.34160  eV     1   --> A              

 **************************************************************************

 **************************************************************************

                    xk=(   0.05000,   0.05000,   0.77806  )

     Band symmetry, C_1 (1)     point group:

     e(  1 -  1) =    -46.85807  eV     1   --> A              
     e(  2 -  2) =    -46.85784  eV     1   --> A              
     e(  3 -  3) =    -23.87423  eV     1   --> A              
     e(  4 -  4) =    -23.87349  eV     1   --> A              
     e(  5 -  5) =    -23.43667  eV     1   --> A              
     e(  6 -  6) =    -23.43560  eV     1   --> A              
     e(  7 -  7) =    -23.40226  eV     1   --> A              
     e(  8 -  8) =    -23.40188  eV     1   --> A              
     e(  9 -  9) =     -7.39196  eV     1   --> A              
     e( 10 - 10) =     -7.30676  eV     1   --> A              
     e( 11 - 11) =     -7.19795  eV     1   --> A              
     e( 12 - 12) =     -7.11035  eV     1   --> A              
     e( 13 - 13) =      4.50634  eV     1   --> A              
     e( 14 - 14) =      4.57946  eV     1   --> A              
     e( 15 - 15) =      5.15236  eV     1   --> A              
     e( 16 - 16) =      5.23893  eV     1   --> A              
     e( 17 - 17) =      5.47341  eV     1   --> A              
     e( 18 - 18) =      5.76025  eV     1   --> A              
     e( 19 - 19) =      6.39708  eV     1   --> A              
     e( 20 - 20) =      6.42244  eV     1   --> A              
     e( 21 - 21) =      6.69233  eV     1   --> A              
     e( 22 - 22) =      6.75654  eV     1   --> A              
     e( 23 - 23) =      7.72130  eV     1   --> A              
     e( 24 - 24) =      7.76745  eV     1   --> A              
     e( 25 - 25) =     12.19783  eV     1   --> A              
     e( 26 - 26) =     12.29026  eV     1   --> A              
     e( 27 - 27) =     12.52591  eV     1   --> A              
     e( 28 - 28) =     12.52682  eV     1   --> A              
     e( 29 - 29) =     12.98177  eV     1   --> A              
     e( 30 - 30) =     13.08901  eV     1   --> A              
     e( 31 - 31) =     14.91272  eV     1   --> A              
     e( 32 - 32) =     15.07199  eV     1   --> A              
     e( 33 - 33) =     15.61324  eV     1   --> A              
     e( 34 - 34) =     15.76877  eV     1   --> A              
     e( 35 - 35) =     21.62304  eV     1   --> A              
     e( 36 - 36) =     21.66460  eV     1   --> A              
     e( 37 - 37) =     24.45000  eV     1   --> A              
     e( 38 - 38) =     24.45768  eV     1   --> A              
     e( 39 - 39) =     24.80394  eV     1   --> A              
     e( 40 - 40) =     24.94320  eV     1   --> A              
     e( 41 - 41) =     26.51115  eV     1   --> A              
     e( 42 - 42) =     26.70903  eV     1   --> A              
     e( 43 - 43) =     27.07640  eV     1   --> A              
     e( 44 - 44) =     27.10882  eV     1   --> A              
     e( 45 - 45) =     28.65508  eV     1   --> A              
     e( 46 - 46) =     28.80598  eV     1   --> A              
     e( 47 - 47) =     31.93865  eV     1   --> A              
     e( 48 - 48) =     32.06499  eV     1   --> A              
     e( 49 - 49) =     34.24682  eV     1   --> A              
     e( 50 - 50) =     34.26926  eV     1   --> A              

 **************************************************************************

 **************************************************************************

                    xk=(   0.02500,   0.02500,   0.77806  )

     Band symmetry, C_1 (1)     point group:

     e(  1 -  1) =    -46.85808  eV     1   --> A              
     e(  2 -  2) =    -46.85785  eV     1   --> A              
     e(  3 -  4) =    -23.87340  eV     2   -->   2 A              
     e(  5 -  5) =    -23.43662  eV     1   --> A              
     e(  6 -  6) =    -23.43652  eV     1   --> A              
     e(  7 -  7) =    -23.40222  eV     1   --> A              
     e(  8 -  8) =    -23.40197  eV     1   --> A              
     e(  9 -  9) =     -7.33615  eV     1   --> A              
     e( 10 - 10) =     -7.30474  eV     1   --> A              
     e( 11 - 11) =     -7.20046  eV     1   --> A              
     e( 12 - 12) =     -7.16836  eV     1   --> A              
     e( 13 - 13) =      4.54962  eV     1   --> A              
     e( 14 - 14) =      4.56808  eV     1   --> A              
     e( 15 - 15) =      5.24101  eV     1   --> A              
     e( 16 - 16) =      5.28634  eV     1   --> A              
     e( 17 - 17) =      5.50355  eV     1   --> A              
     e( 18 - 18) =      5.60041  eV     1   --> A              
     e( 19 - 19) =      6.39863  eV     1   --> A              
     e( 20 - 20) =      6.40536  eV     1   --> A              
     e( 21 - 21) =      6.67074  eV     1   --> A              
     e( 22 - 22) =      6.68763  eV     1   --> A              
     e( 23 - 23) =      7.75532  eV     1   --> A              
     e( 24 - 24) =      7.76699  eV     1   --> A              
     e( 25 - 25) =     12.27288  eV     1   --> A              
     e( 26 - 26) =     12.29848  eV     1   --> A              
     e( 27 - 27) =     12.52516  eV     1   --> A              
     e( 28 - 28) =     12.52558  eV     1   --> A              
     e( 29 - 29) =     13.00555  eV     1   --> A              
     e( 30 - 30) =     13.03503  eV     1   --> A              
     e( 31 - 31) =     15.00382  eV     1   --> A              
     e( 32 - 32) =     15.05064  eV     1   --> A              
     e( 33 - 33) =     15.61341  eV     1   --> A              
     e( 34 - 34) =     15.65927  eV     1   --> A              
     e( 35 - 35) =     21.65003  eV     1   --> A              
     e( 36 - 36) =     21.66042  eV     1   --> A              
     e( 37 - 37) =     24.54395  eV     1   --> A              
     e( 38 - 38) =     24.56018  eV     1   --> A              
     e( 39 - 39) =     24.76770  eV     1   --> A              
     e( 40 - 40) =     24.82175  eV     1   --> A              
     e( 41 - 41) =     26.59661  eV     1   --> A              
     e( 42 - 42) =     26.64823  eV     1   --> A              
     e( 43 - 43) =     27.08646  eV     1   --> A              
     e( 44 - 44) =     27.09417  eV     1   --> A              
     e( 45 - 45) =     28.70255  eV     1   --> A              
     e( 46 - 46) =     28.74070  eV     1   --> A              
     e( 47 - 47) =     32.00887  eV     1   --> A              
     e( 48 - 48) =     32.04073  eV     1   --> A              
     e( 49 - 49) =     34.21742  eV     1   --> A              
     e( 50 - 50) =     34.22285  eV     1   --> A              

 **************************************************************************

 **************************************************************************

                    xk=(   0.00000,   0.00000,   0.77806  )

     Band symmetry, C_1 (1)     point group:

     e(  1 -  1) =    -46.85808  eV     1   --> A              
     e(  2 -  2) =    -46.85785  eV     1   --> A              
     e(  3 -  3) =    -23.87336  eV     1   --> A              
     e(  4 -  4) =    -23.87311  eV     1   --> A              
     e(  5 -  5) =    -23.43683  eV     1   --> A              
     e(  6 -  6) =    -23.43660  eV     1   --> A              
     e(  7 -  7) =    -23.40221  eV     1   --> A              
     e(  8 -  8) =    -23.40200  eV     1   --> A              
     e(  9 - 10) =     -7.30407  eV     2   -->   2 A              
     e( 11 - 12) =     -7.20130  eV     2   -->   2 A              
     e( 13 - 14) =      4.56426  eV     2   -->   2 A              
     e( 15 - 16) =      5.30327  eV     2   -->   2 A              
     e( 17 - 18) =      5.51402  eV     2   -->   2 A              
     e( 19 - 20) =      6.39925  eV     2   -->   2 A              
     e( 21 - 22) =      6.66340  eV     2   -->   2 A              
     e( 23 - 24) =      7.76684  eV     2   -->   2 A              
     e( 25 - 25) =     12.30111  eV     1   --> A              
     e( 26 - 26) =     12.30126  eV     1   --> A              
     e( 27 - 27) =     12.52492  eV     1   --> A              
     e( 28 - 28) =     12.52514  eV     1   --> A              
     e( 29 - 29) =     13.01374  eV     1   --> A              
     e( 30 - 30) =     13.01388  eV     1   --> A              
     e( 31 - 31) =     15.04313  eV     1   --> A              
     e( 32 - 32) =     15.04326  eV     1   --> A              
     e( 33 - 33) =     15.61348  eV     1   --> A              
     e( 34 - 34) =     15.61368  eV     1   --> A              
     e( 35 - 36) =     21.65912  eV     2   -->   2 A              
     e( 37 - 38) =     24.59857  eV     2   -->   2 A              
     e( 39 - 40) =     24.75536  eV     2   -->   2 A              
     e( 41 - 42) =     26.62660  eV     2   -->   2 A              
     e( 43 - 44) =     27.08911  eV     2   -->   2 A              
     e( 45 - 46) =     28.71850  eV     2   -->   2 A              
     e( 47 - 48) =     32.03272  eV     2   -->   2 A              
     e( 49 - 50) =     34.20688  eV     2   -->   2 A              

 **************************************************************************

     BANDS        :   7m25.37s CPU     29.73s WALL


   This run was terminated on:  21:13:26  17Sep2025            

=------------------------------------------------------------------------------=
   JOB DONE.
=------------------------------------------------------------------------------=
Note: The following floating-point exceptions are signalling: IEEE_INVALID_FLAG
