
     Program PWSCF v.7.5 starts on 17Sep2025 at 19:45:48 

     This program is part of the open-source Quantum ESPRESSO suite
     for quantum simulation of materials; please cite
         "P. Giannozzi et al., J. Phys.:Condens. Matter 21 395502 (2009);
         "P. Giannozzi et al., J. Phys.:Condens. Matter 29 465901 (2017);
         "P. Giannozzi et al., J. Chem. Phys. 152 154105 (2020);
          URL http://www.quantum-espresso.org", 
     in publications or presentations arising from this work. More details at
     http://www.quantum-espresso.org/quote

     Parallel version (MPI & OpenMP), running on       1 processor cores
     Number of MPI processes:                 1
     Threads/MPI process:                     1

     MPI processes distributed on     1 nodes
     4265 MiB available memory on the printing compute node when the environment starts

     Reading input from TiO2.relax.in

     Current dimensions of program PWSCF are:
     Max number of different atomic species (ntypx) = 10
     Max number of k-points (npk) =  40000
     Max angular momentum in pseudopotentials (lmaxx) =  4

     IMPORTANT: XC functional enforced from input :
     Exchange-correlation= PZ
                           (   1   1   0   0   0   0   0)
     Any further DFT definition will be discarded
     Please, verify this is what you really want

     Message from routine setup:
     using ibrav=0 with symmetry is DISCOURAGED, use correct ibrav instead

     Subspace diagonalization in iterative solution of the eigenvalue problem:
     a serial algorithm will be used


     G-vector sticks info
     --------------------
     sticks:   dense  smooth     PW     G-vecs:    dense   smooth      PW
     Sum        1969     981    293                41967    14763    2497

     Using Slab Decomposition



     bravais-lattice index     =            0
     lattice parameter (alat)  =       8.7906  a.u.
     unit-cell volume          =     433.6888 (a.u.)^3
     number of atoms/cell      =            6
     number of atomic types    =            2
     number of electrons       =        48.00
     number of Kohn-Sham states=           24
     kinetic-energy cutoff     =      40.0000  Ry
     charge density cutoff     =     320.0000  Ry
     scf convergence threshold =      1.0E-06
     mixing beta               =       0.3000
     number of iterations used =            8  plain     mixing
     energy convergence thresh.=      1.0E-04
     force convergence thresh. =      1.0E-03
     press convergence thresh. =      5.0E-01
     Exchange-correlation= PZ
                           (   1   1   0   0   0   0   0)
     nstep                     =           50


     celldm(1)=   8.790590  celldm(2)=   0.000000  celldm(3)=   0.000000
     celldm(4)=   0.000000  celldm(5)=   0.000000  celldm(6)=   0.000000

     crystal axes: (cart. coord. in units of alat)
               a(1) = (   1.000000   0.000000   0.000000 )  
               a(2) = (   0.000000   1.000000   0.000000 )  
               a(3) = (   0.000000   0.000000   0.638446 )  

     reciprocal axes: (cart. coord. in units 2 pi/alat)
               b(1) = (  1.000000  0.000000  0.000000 )  
               b(2) = (  0.000000  1.000000  0.000000 )  
               b(3) = (  0.000000  0.000000  1.566303 )  


     PseudoPot. # 1 for Ti read from file:
     /home/dean_gov/qe-pp/gbrv_lda/ti_lda_v1.4.uspp.F.UPF
     MD5 check sum: 0d9f225c038fe889ca2a701dcc8d72cb
     Pseudo is Ultrasoft + core correction, Zval = 12.0
     Generated by new atomic code, or converted to UPF format
     Using radial grid of  851 points,  6 beta functions with: 
                l(1) =   0
                l(2) =   0
                l(3) =   1
                l(4) =   1
                l(5) =   2
                l(6) =   2
     Q(r) pseudized with  6 coefficients,  rinner =    1.000   1.000   1.000
                                                       1.000   1.000

     PseudoPot. # 2 for O  read from file:
     /home/dean_gov/qe-pp/gbrv_lda/o_lda_v1.2.uspp.F.UPF
     MD5 check sum: 194b818514d2a7dbb603bb78519a4f40
     Pseudo is Ultrasoft + core correction, Zval =  6.0
     Generated by new atomic code, or converted to UPF format
     Using radial grid of  737 points,  5 beta functions with: 
                l(1) =   0
                l(2) =   0
                l(3) =   1
                l(4) =   1
                l(5) =   2
     Q(r) pseudized with  8 coefficients,  rinner =    0.900   0.900   0.900
                                                       0.900   0.900

     atomic species   valence    mass     pseudopotential
     Ti               12.00    47.86700     Ti( 1.00)
     O                 6.00    15.99900     O ( 1.00)

     16 Sym. Ops., with inversion, found ( 8 have fractional translation)



   Cartesian axes

     site n.     atom                  positions (alat units)
         1        Ti     tau(   1) = (   0.5000004   0.5000004   0.3192234  )
         2        Ti     tau(   2) = (   0.0000000   0.0000000   0.0000000  )
         3        O      tau(   3) = (   0.6950896   0.6950896   0.0000000  )
         4        O      tau(   4) = (   0.1950892   0.8049117   0.3192234  )
         5        O      tau(   5) = (   0.3049112   0.3049112   0.0000000  )
         6        O      tau(   6) = (   0.8049117   0.1950892   0.3192234  )

     number of k points=     9
                       cart. coord. in units 2pi/alat
        k(    1) = (   0.0000000   0.0000000   0.0000000), wk =   0.0555556
        k(    2) = (   0.0000000   0.0000000   0.3915758), wk =   0.1111111
        k(    3) = (   0.0000000   0.0000000  -0.7831517), wk =   0.0555556
        k(    4) = (   0.0000000   0.3333333   0.0000000), wk =   0.2222222
        k(    5) = (   0.0000000   0.3333333   0.3915758), wk =   0.4444444
        k(    6) = (   0.0000000   0.3333333  -0.7831517), wk =   0.2222222
        k(    7) = (   0.3333333   0.3333333   0.0000000), wk =   0.2222222
        k(    8) = (   0.3333333   0.3333333   0.3915758), wk =   0.4444444
        k(    9) = (   0.3333333   0.3333333  -0.7831517), wk =   0.2222222

     Dense  grid:    41967 G-vectors     FFT dimensions: (  54,  54,  32)

     Smooth grid:    14763 G-vectors     FFT dimensions: (  36,  36,  24)

     Estimated max dynamical RAM per process >     168.66 MB

     Check: negative core charge=   -0.000012

     Initial potential from superposition of free atoms

     starting charge      45.9999, renormalised to      48.0000

     negative rho (up, down):  1.752E-03 0.000E+00
     Starting wfcs are   36 randomized atomic wfcs

     total cpu time spent up to now is        2.4 secs

     per-process dynamical memory:    41.1 Mb

     Self-consistent Calculation

     iteration #  1     ecut=    40.00 Ry     beta= 0.30
     Davidson diagonalization with overlap
     ethr =  1.00E-02,  avg # of iterations =  2.0

     negative rho (up, down):  1.905E-03 0.000E+00

     total cpu time spent up to now is        3.2 secs

     total energy              =    -368.13134100 Ry
     estimated scf accuracy    <       1.24323029 Ry

     iteration #  2     ecut=    40.00 Ry     beta= 0.30
     Davidson diagonalization with overlap
     ethr =  2.59E-03,  avg # of iterations =  3.9

     negative rho (up, down):  1.848E-03 0.000E+00

     total cpu time spent up to now is        4.2 secs

     total energy              =    -368.40321913 Ry
     estimated scf accuracy    <       0.07798474 Ry

     iteration #  3     ecut=    40.00 Ry     beta= 0.30
     Davidson diagonalization with overlap
     ethr =  1.62E-04,  avg # of iterations =  4.0

     negative rho (up, down):  1.690E-03 0.000E+00

     total cpu time spent up to now is        5.1 secs

     total energy              =    -368.38831429 Ry
     estimated scf accuracy    <       0.06325670 Ry

     iteration #  4     ecut=    40.00 Ry     beta= 0.30
     Davidson diagonalization with overlap
     ethr =  1.32E-04,  avg # of iterations =  5.0

     negative rho (up, down):  1.717E-03 0.000E+00

     total cpu time spent up to now is        6.1 secs

     total energy              =    -368.38709230 Ry
     estimated scf accuracy    <       0.15032514 Ry

     iteration #  5     ecut=    40.00 Ry     beta= 0.30
     Davidson diagonalization with overlap
     ethr =  1.32E-04,  avg # of iterations =  4.2

     negative rho (up, down):  1.695E-03 0.000E+00

     total cpu time spent up to now is        7.1 secs

     total energy              =    -368.41678433 Ry
     estimated scf accuracy    <       0.00280595 Ry

     iteration #  6     ecut=    40.00 Ry     beta= 0.30
     Davidson diagonalization with overlap
     ethr =  5.85E-06,  avg # of iterations =  5.6

     negative rho (up, down):  1.667E-03 0.000E+00

     total cpu time spent up to now is        8.1 secs

     total energy              =    -368.40880456 Ry
     estimated scf accuracy    <       0.03608714 Ry

     iteration #  7     ecut=    40.00 Ry     beta= 0.30
     Davidson diagonalization with overlap
     ethr =  5.85E-06,  avg # of iterations =  5.0

     negative rho (up, down):  1.667E-03 0.000E+00

     total cpu time spent up to now is        9.2 secs

     total energy              =    -368.41474922 Ry
     estimated scf accuracy    <       0.00037946 Ry

     iteration #  8     ecut=    40.00 Ry     beta= 0.30
     Davidson diagonalization with overlap
     ethr =  7.91E-07,  avg # of iterations =  1.7

     negative rho (up, down):  1.668E-03 0.000E+00

     total cpu time spent up to now is       10.0 secs

     total energy              =    -368.41467935 Ry
     estimated scf accuracy    <       0.00025587 Ry

     iteration #  9     ecut=    40.00 Ry     beta= 0.30
     Davidson diagonalization with overlap
     ethr =  5.33E-07,  avg # of iterations =  3.8

     negative rho (up, down):  1.668E-03 0.000E+00

     total cpu time spent up to now is       10.9 secs

     total energy              =    -368.41473974 Ry
     estimated scf accuracy    <       0.00000365 Ry

     iteration # 10     ecut=    40.00 Ry     beta= 0.30
     Davidson diagonalization with overlap
     ethr =  7.61E-09,  avg # of iterations =  4.8

     negative rho (up, down):  1.668E-03 0.000E+00

     total cpu time spent up to now is       11.9 secs

     total energy              =    -368.41474199 Ry
     estimated scf accuracy    <       0.00001328 Ry

     iteration # 11     ecut=    40.00 Ry     beta= 0.30
     Davidson diagonalization with overlap
     ethr =  7.61E-09,  avg # of iterations =  3.9

     negative rho (up, down):  1.667E-03 0.000E+00

     total cpu time spent up to now is       12.8 secs

     total energy              =    -368.41474190 Ry
     estimated scf accuracy    <       0.00000342 Ry

     iteration # 12     ecut=    40.00 Ry     beta= 0.30
     Davidson diagonalization with overlap
     ethr =  7.12E-09,  avg # of iterations =  2.8

     negative rho (up, down):  1.666E-03 0.000E+00

     total cpu time spent up to now is       13.7 secs

     End of self-consistent calculation

          k = 0.0000 0.0000 0.0000 (  1859 PWs)   bands (ev):

   -48.0037 -47.9885 -24.6191 -24.6190 -24.4670 -24.4670 -24.4334 -24.4016
    -9.4399  -8.2519  -7.5573  -7.5572   2.6132   3.0864   3.4854   4.6130
     4.6131   5.7765   5.7765   6.4156   7.6529   7.8807   7.8807   8.3200

          k = 0.0000 0.0000 0.3916 (  1855 PWs)   bands (ev):

   -47.9812 -47.9704 -24.6520 -24.6316 -24.5609 -24.5609 -24.4580 -24.4580
    -8.8605  -7.9658  -7.8039  -7.8039   3.4141   3.6671   4.1865   4.2854
     4.2854   5.0415   5.8827   6.5642   6.5642   6.8484   6.8485   7.8995

          k = 0.0000 0.0000-0.7832 (  1812 PWs)   bands (ev):

   -47.9555 -47.9552 -24.8579 -24.8577 -24.4810 -24.4807 -24.4701 -24.4699
    -8.0489  -8.0488  -7.9679  -7.9679   3.9218   3.9219   4.6634   4.6634
     4.7269   4.7269   5.5717   5.5717   6.0290   6.0290   6.9033   6.9033

          k = 0.0000 0.3333 0.0000 (  1866 PWs)   bands (ev):

   -47.9999 -47.9922 -24.5905 -24.5887 -24.5001 -24.4982 -24.4254 -24.4095
    -9.0805  -8.3898  -7.7798  -7.6752   3.1638   3.4024   4.2320   4.6485
     4.6621   5.3121   5.5341   6.3433   6.5180   7.1095   7.4605   7.9352

          k = 0.0000 0.3333 0.3916 (  1849 PWs)   bands (ev):

   -47.9784 -47.9730 -24.6571 -24.6454 -24.5366 -24.5316 -24.4785 -24.4749
    -8.6089  -8.0818  -7.9344  -7.8537   3.7522   4.0268   4.0652   4.1725
     4.9587   4.9692   5.2182   6.0536   6.1733   6.8378   7.1788   7.7316

          k = 0.0000 0.3333-0.7832 (  1848 PWs)   bands (ev):

   -47.9554 -47.9552 -24.8644 -24.8641 -24.4756 -24.4753 -24.4693 -24.4691
    -8.2969  -8.2968  -7.7000  -7.6999   3.4762   3.4762   4.3568   4.3568
     5.1039   5.1039   5.8051   5.8052   6.5049   6.5049   6.9786   6.9786

          k = 0.3333 0.3333 0.0000 (  1852 PWs)   bands (ev):

   -47.9979 -47.9941 -24.6276 -24.5964 -24.4940 -24.4616 -24.4214 -24.4134
    -8.9225  -8.5745  -7.7704  -7.6561   2.8630   3.3009   4.5630   4.6272
     4.6794   5.5025   6.0056   6.5558   6.7592   6.8256   7.1315   7.6480

          k = 0.3333 0.3333 0.3916 (  1860 PWs)   bands (ev):

   -47.9771 -47.9744 -24.6503 -24.6428 -24.5674 -24.5386 -24.4731 -24.4543
    -8.4646  -8.1980  -7.9245  -7.8863   3.4851   3.7884   3.9189   3.9391
     5.0842   5.5580   5.6938   6.1974   6.5595   6.6808   6.9966   7.4469

          k = 0.3333 0.3333-0.7832 (  1864 PWs)   bands (ev):

   -47.9554 -47.9552 -24.8630 -24.8582 -24.4822 -24.4759 -24.4712 -24.4700
    -8.3069  -8.1172  -7.8821  -7.6806   3.3329   3.8220   3.9428   4.1838
     4.5888   5.3040   5.5871   5.7040   6.8051   7.0087   7.2240   7.5035

     highest occupied level (ev):     8.3200

!    total energy              =    -368.41474248 Ry
     estimated scf accuracy    <       0.00000093 Ry

     The total energy is the sum of the following terms:
     one-electron contribution =    -129.55335300 Ry
     hartree contribution      =      86.91306329 Ry
     xc contribution           =     -64.26069491 Ry
     ewald contribution        =    -261.51375787 Ry

     convergence has been achieved in  12 iterations

     negative rho (up, down):  1.666E-03 0.000E+00

     Forces acting on atoms (cartesian axes, Ry/au):

     atom    1 type  1   force =     0.00000000    0.00000000   -0.00000000
     atom    2 type  1   force =     0.00000000    0.00000000   -0.00000000
     atom    3 type  2   force =    -0.00459856   -0.00459856   -0.00000000
     atom    4 type  2   force =    -0.00459856    0.00459856   -0.00000000
     atom    5 type  2   force =     0.00459856    0.00459856   -0.00000000
     atom    6 type  2   force =     0.00459856   -0.00459856    0.00000000

     Total force =     0.013007     Total SCF correction =     0.000334


     Computing stress (Cartesian axis) and pressure


     negative rho (up, down):  1.666E-03 0.000E+00
          total   stress  (Ry/bohr**3)                   (kbar)     P=     -132.09
  -0.00085283   0.00000000   0.00000000         -125.45        0.00        0.00
   0.00000000  -0.00085283   0.00000000            0.00     -125.45        0.00
   0.00000000   0.00000000  -0.00098805            0.00        0.00     -145.35


     BFGS Geometry Optimization
     Energy error            =      2.9E-02 Ry
     Gradient error          =      4.6E-03 Ry/Bohr
     Cell gradient error     =      1.5E+02 kbar

     number of scf cycles    =   1
     number of bfgs steps    =   0

     enthalpy           new  =    -368.4147424839 Ry

     new trust radius        =       0.1028812913 bohr
     new conv_thr            =       0.0000010000 Ry

     new unit-cell volume =    405.13224 a.u.^3 (    60.03440 Ang^3 )
     density =      4.41810 g/cm^3

CELL_PARAMETERS (angstrom)
   4.552601119   0.000000000   0.000000000
   0.000000000   4.552601119   0.000000000
   0.000000000   0.000000000   2.896549786

ATOMIC_POSITIONS (angstrom)
Ti               2.2763025169        2.2763025169        1.4482768438
Ti               0.0000000000        0.0000000000       -0.0000000000
O                3.1620842173        3.1620842173       -0.0000000000
O                0.8857817004        3.6668233333        1.4482768438
O                1.3905208164        1.3905208164       -0.0000000000
O                3.6668233333        0.8857817004        1.4482768438



     Writing config-only to output data dir ./tmp/TiO2.save/ :
     XML data file
     NEW-OLD atomic charge density approx. for the potential
     New effective cutoffs (rho, wfc):  335.94   41.99

     Check: negative core charge=   -0.000013

     negative rho (up, down):  1.543E-03 0.000E+00

     total cpu time spent up to now is       16.2 secs

     per-process dynamical memory:    52.6 Mb

     Self-consistent Calculation

     iteration #  1     ecut=    40.00 Ry     beta= 0.30
     Davidson diagonalization with overlap
     ethr =  1.00E-06,  avg # of iterations =  6.7

     negative rho (up, down):  1.550E-03 0.000E+00

     total cpu time spent up to now is       17.5 secs

     total energy              =    -368.42511665 Ry
     estimated scf accuracy    <       0.00131787 Ry

     iteration #  2     ecut=    40.00 Ry     beta= 0.30
     Davidson diagonalization with overlap
     ethr =  2.75E-06,  avg # of iterations =  2.0

     negative rho (up, down):  1.556E-03 0.000E+00

     total cpu time spent up to now is       18.3 secs

     total energy              =    -368.42512591 Ry
     estimated scf accuracy    <       0.00024505 Ry

     iteration #  3     ecut=    40.00 Ry     beta= 0.30
     Davidson diagonalization with overlap
     ethr =  5.11E-07,  avg # of iterations =  2.0

     negative rho (up, down):  1.560E-03 0.000E+00

     total cpu time spent up to now is       19.2 secs

     total energy              =    -368.42513774 Ry
     estimated scf accuracy    <       0.00004371 Ry

     iteration #  4     ecut=    40.00 Ry     beta= 0.30
     Davidson diagonalization with overlap
     ethr =  9.11E-08,  avg # of iterations =  4.7

     negative rho (up, down):  1.560E-03 0.000E+00

     total cpu time spent up to now is       20.2 secs

     total energy              =    -368.42515492 Ry
     estimated scf accuracy    <       0.00004047 Ry

     iteration #  5     ecut=    40.00 Ry     beta= 0.30
     Davidson diagonalization with overlap
     ethr =  8.43E-08,  avg # of iterations =  1.0

     negative rho (up, down):  1.562E-03 0.000E+00

     total cpu time spent up to now is       21.0 secs

     total energy              =    -368.42514229 Ry
     estimated scf accuracy    <       0.00002802 Ry

     iteration #  6     ecut=    40.00 Ry     beta= 0.30
     Davidson diagonalization with overlap
     ethr =  5.84E-08,  avg # of iterations =  3.9

     negative rho (up, down):  1.564E-03 0.000E+00

     total cpu time spent up to now is       22.0 secs

     total energy              =    -368.42515371 Ry
     estimated scf accuracy    <       0.00000815 Ry

     iteration #  7     ecut=    40.00 Ry     beta= 0.30
     Davidson diagonalization with overlap
     ethr =  1.70E-08,  avg # of iterations =  2.0

     negative rho (up, down):  1.564E-03 0.000E+00

     total cpu time spent up to now is       22.8 secs

     total energy              =    -368.42514956 Ry
     estimated scf accuracy    <       0.00001197 Ry

     iteration #  8     ecut=    40.00 Ry     beta= 0.30
     Davidson diagonalization with overlap
     ethr =  1.70E-08,  avg # of iterations =  3.9

     negative rho (up, down):  1.564E-03 0.000E+00

     total cpu time spent up to now is       23.7 secs

     End of self-consistent calculation

          k = 0.0000 0.0000 0.0000 (  1859 PWs)   bands (ev):

   -46.7550 -46.7331 -23.4492 -23.4492 -23.2437 -23.2436 -23.1924 -23.1497
    -8.7578  -7.4772  -6.5908  -6.5907   3.3173   3.7231   4.0403   5.3621
     5.3622   6.6519   6.6519   7.3956   8.6790   8.8707   8.8707   9.2984

          k = 0.0000 0.0000 0.4015 (  1855 PWs)   bands (ev):

   -46.7234 -46.7078 -23.4847 -23.4579 -23.3702 -23.3701 -23.2308 -23.2308
    -8.0762  -7.1034  -6.9187  -6.9187   4.2038   4.3969   4.7974   5.0140
     5.0140   5.8972   6.7780   7.4849   7.4849   7.7992   7.7992   8.8465

          k = 0.0000 0.0000-0.8030 (  1812 PWs)   bands (ev):

   -46.6870 -46.6867 -23.7574 -23.7571 -23.2635 -23.2633 -23.2441 -23.2439
    -7.2425  -7.2424  -7.0489  -7.0488   4.6674   4.6675   5.3849   5.3850
     5.6284   5.6284   6.4762   6.4762   6.7985   6.7986   7.8516   7.8516

          k = 0.0000 0.3406 0.0000 (  1866 PWs)   bands (ev):

   -46.7495 -46.7386 -23.4107 -23.4078 -23.2895 -23.2865 -23.1817 -23.1603
    -8.3501  -7.5921  -6.8778  -6.7492   3.8830   4.0873   4.8843   5.4017
     5.4158   6.1447   6.4198   7.2266   7.4881   8.1001   8.3842   8.8891

          k = 0.0000 0.3406 0.4015 (  1849 PWs)   bands (ev):

   -46.7194 -46.7116 -23.4926 -23.4770 -23.3367 -23.3294 -23.2591 -23.2540
    -7.7995  -7.2261  -7.0658  -6.9779   4.5277   4.6999   4.8306   4.8899
     5.7851   5.8067   5.9784   6.9860   7.1326   7.7557   8.0837   8.6712

          k = 0.0000 0.3406-0.8030 (  1848 PWs)   bands (ev):

   -46.6869 -46.6867 -23.7661 -23.7659 -23.2557 -23.2555 -23.2433 -23.2431
    -7.5308  -7.5307  -6.7301  -6.7301   4.1293   4.1293   5.1635   5.1635
     5.9746   5.9746   6.7253   6.7254   7.4061   7.4061   7.8472   7.8472

          k = 0.3406 0.3406 0.0000 (  1852 PWs)   bands (ev):

   -46.7467 -46.7412 -23.4616 -23.4191 -23.2806 -23.2361 -23.1762 -23.1655
    -8.1860  -7.8017  -6.8651  -6.7081   3.5409   4.0131   5.3074   5.3643
     5.3781   6.3746   6.8339   7.4402   7.7161   7.7423   8.1382   8.6290

          k = 0.3406 0.3406 0.4015 (  1860 PWs)   bands (ev):

   -46.7174 -46.7135 -23.4833 -23.4728 -23.3797 -23.3395 -23.2514 -23.2256
    -7.6395  -7.3495  -7.0580  -7.0148   4.2572   4.4558   4.6304   4.7143
     5.9124   6.4277   6.4725   7.1580   7.4225   7.6295   7.9211   8.3896

          k = 0.3406 0.3406-0.8030 (  1864 PWs)   bands (ev):

   -46.6869 -46.6866 -23.7643 -23.7577 -23.2655 -23.2564 -23.2458 -23.2442
    -7.5452  -7.3212  -6.9482  -6.7040   3.9835   4.4861   4.7468   5.0468
     5.3633   6.1439   6.4867   6.6653   7.6607   7.9179   8.1740   8.4470

     highest occupied level (ev):     9.2984

!    total energy              =    -368.42515043 Ry
     estimated scf accuracy    <       0.00000059 Ry

     The total energy is the sum of the following terms:
     one-electron contribution =    -121.09392246 Ry
     hartree contribution      =      84.60041972 Ry
     xc contribution           =     -64.58821825 Ry
     ewald contribution        =    -267.34342944 Ry

     convergence has been achieved in   8 iterations

     negative rho (up, down):  1.564E-03 0.000E+00

     Forces acting on atoms (cartesian axes, Ry/au):

     atom    1 type  1   force =     0.00000000    0.00000000    0.00000000
     atom    2 type  1   force =     0.00000000    0.00000000    0.00000000
     atom    3 type  2   force =     0.00786330    0.00786330   -0.00000000
     atom    4 type  2   force =     0.00786330   -0.00786330   -0.00000000
     atom    5 type  2   force =    -0.00786330   -0.00786330    0.00000000
     atom    6 type  2   force =    -0.00786330    0.00786330    0.00000000

     Total force =     0.022241     Total SCF correction =     0.000082


     Computing stress (Cartesian axis) and pressure


     negative rho (up, down):  1.564E-03 0.000E+00
          total   stress  (Ry/bohr**3)                   (kbar)     P=       35.30
   0.00015079   0.00000000   0.00000000           22.18        0.00        0.00
   0.00000000   0.00015079   0.00000000            0.00       22.18        0.00
   0.00000000   0.00000000   0.00041824            0.00        0.00       61.52

     Energy error            =      1.0E-02 Ry
     Gradient error          =      7.9E-03 Ry/Bohr
     Cell gradient error     =      6.2E+01 kbar

     number of scf cycles    =   2
     number of bfgs steps    =   1

     enthalpy           old  =    -368.4147424839 Ry
     enthalpy           new  =    -368.4251504318 Ry

     CASE: enthalpy          _new < enthalpy          _old

     new trust radius        =       0.0308423046 bohr
     new conv_thr            =       0.0000000786 Ry

     new unit-cell volume =    410.31210 a.u.^3 (    60.80198 Ang^3 )
     density =      4.36232 g/cm^3

CELL_PARAMETERS (angstrom)
   4.564161590   0.000000000   0.000000000
   0.000000000   4.564161590   0.000000000
   0.000000000   0.000000000   2.918741939

ATOMIC_POSITIONS (angstrom)
Ti               2.2820827573        2.2820827573        1.4593729348
Ti               0.0000000000        0.0000000000       -0.0000000000
O                3.1732147194        3.1732147194       -0.0000000000
O                0.8911319621        3.6730335524        1.4593729348
O                1.3909507951        1.3909507951       -0.0000000000
O                3.6730335524        0.8911319621        1.4593729348



     Writing config-only to output data dir ./tmp/TiO2.save/ :
     XML data file
     NEW-OLD atomic charge density approx. for the potential
     New effective cutoffs (rho, wfc):  332.28   41.54

     Check: negative core charge=   -0.000013

     negative rho (up, down):  1.586E-03 0.000E+00

     total cpu time spent up to now is       26.3 secs

     per-process dynamical memory:    52.6 Mb

     Self-consistent Calculation

     iteration #  1     ecut=    40.00 Ry     beta= 0.30
     Davidson diagonalization with overlap
     ethr =  1.00E-06,  avg # of iterations =  6.1

     negative rho (up, down):  1.587E-03 0.000E+00

     total cpu time spent up to now is       27.4 secs

     total energy              =    -368.42615118 Ry
     estimated scf accuracy    <       0.00021499 Ry

     iteration #  2     ecut=    40.00 Ry     beta= 0.30
     Davidson diagonalization with overlap
     ethr =  4.48E-07,  avg # of iterations =  2.2

     negative rho (up, down):  1.586E-03 0.000E+00

     total cpu time spent up to now is       28.3 secs

     total energy              =    -368.42612754 Ry
     estimated scf accuracy    <       0.00006172 Ry

     iteration #  3     ecut=    40.00 Ry     beta= 0.30
     Davidson diagonalization with overlap
     ethr =  1.29E-07,  avg # of iterations =  4.2

     negative rho (up, down):  1.586E-03 0.000E+00

     total cpu time spent up to now is       29.2 secs

     total energy              =    -368.42615066 Ry
     estimated scf accuracy    <       0.00002171 Ry

     iteration #  4     ecut=    40.00 Ry     beta= 0.30
     Davidson diagonalization with overlap
     ethr =  4.52E-08,  avg # of iterations =  2.0

     negative rho (up, down):  1.584E-03 0.000E+00

     total cpu time spent up to now is       30.0 secs

     total energy              =    -368.42613795 Ry
     estimated scf accuracy    <       0.00003081 Ry

     iteration #  5     ecut=    40.00 Ry     beta= 0.30
     Davidson diagonalization with overlap
     ethr =  4.52E-08,  avg # of iterations =  4.0

     negative rho (up, down):  1.584E-03 0.000E+00

     total cpu time spent up to now is       31.0 secs

     total energy              =    -368.42614481 Ry
     estimated scf accuracy    <       0.00000213 Ry

     iteration #  6     ecut=    40.00 Ry     beta= 0.30
     Davidson diagonalization with overlap
     ethr =  4.44E-09,  avg # of iterations =  3.6

     negative rho (up, down):  1.583E-03 0.000E+00

     total cpu time spent up to now is       31.9 secs

     total energy              =    -368.42614385 Ry
     estimated scf accuracy    <       0.00000270 Ry

     iteration #  7     ecut=    40.00 Ry     beta= 0.30
     Davidson diagonalization with overlap
     ethr =  4.44E-09,  avg # of iterations =  4.1

     negative rho (up, down):  1.583E-03 0.000E+00

     total cpu time spent up to now is       32.9 secs

     total energy              =    -368.42614440 Ry
     estimated scf accuracy    <       0.00000021 Ry

     iteration #  8     ecut=    40.00 Ry     beta= 0.30
     Davidson diagonalization with overlap
     ethr =  4.38E-10,  avg # of iterations =  3.8

     negative rho (up, down):  1.583E-03 0.000E+00

     total cpu time spent up to now is       33.8 secs

     End of self-consistent calculation

          k = 0.0000 0.0000 0.0000 (  1859 PWs)   bands (ev):

   -46.9992 -46.9786 -23.6756 -23.6756 -23.4832 -23.4831 -23.4381 -23.3970
    -8.8817  -7.6119  -6.7720  -6.7719   3.1913   3.6119   3.9360   5.2296
     5.2297   6.5036   6.5036   7.1823   8.4786   8.6928   8.6928   9.1425

          k = 0.0000 0.0000 0.3984 (  1855 PWs)   bands (ev):

   -46.9704 -46.9557 -23.7069 -23.6808 -23.6029 -23.6029 -23.4718 -23.4718
    -8.2300  -7.2684  -7.0756  -7.0755   4.0485   4.2519   4.6775   4.8914
     4.8914   5.7318   6.6198   7.3285   7.3285   7.6195   7.6196   8.6642

          k = 0.0000 0.0000-0.7969 (  1812 PWs)   bands (ev):

   -46.9372 -46.9370 -23.9579 -23.9577 -23.5063 -23.5060 -23.4834 -23.4832
    -7.3757  -7.3756  -7.2388  -7.2388   4.5235   4.5235   5.2536   5.2537
     5.4563   5.4563   6.3234   6.3234   6.6375   6.6375   7.6879   7.6879

          k = 0.0000 0.3397 0.0000 (  1866 PWs)   bands (ev):

   -46.9940 -46.9837 -23.6380 -23.6352 -23.5277 -23.5248 -23.4278 -23.4072
    -8.4796  -7.7252  -7.0555  -6.9255   3.7657   3.9786   4.7654   5.2701
     5.2852   5.9864   6.2509   7.0693   7.2750   7.8932   8.2240   8.7290

          k = 0.0000 0.3397 0.3984 (  1849 PWs)   bands (ev):

   -46.9667 -46.9594 -23.7149 -23.6997 -23.5703 -23.5628 -23.4994 -23.4941
    -7.9548  -7.3825  -7.2285  -7.1361   4.3846   4.5787   4.6928   4.7627
     5.6330   5.6477   5.8405   6.8029   6.9369   7.5940   7.9348   8.5069

          k = 0.0000 0.3397-0.7969 (  1848 PWs)   bands (ev):

   -46.9372 -46.9369 -23.9667 -23.9665 -23.4984 -23.4982 -23.4826 -23.4824
    -7.6673  -7.6673  -6.9193  -6.9192   4.0128   4.0128   5.0015   5.0015
     5.8106   5.8106   6.5570   6.5570   7.2493   7.2494   7.6883   7.6883

          k = 0.3397 0.3397 0.0000 (  1852 PWs)   bands (ev):

   -46.9914 -46.9862 -23.6874 -23.6462 -23.5190 -23.4760 -23.4225 -23.4122
    -8.3159  -7.9343  -7.0404  -6.8871   3.4196   3.8965   5.1739   5.2428
     5.2462   6.2136   6.6947   7.2728   7.5320   7.5705   7.9316   8.4454

          k = 0.3397 0.3397 0.3984 (  1860 PWs)   bands (ev):

   -46.9648 -46.9611 -23.7059 -23.6954 -23.6120 -23.5727 -23.4918 -23.4669
    -7.7972  -7.5091  -7.2172  -7.1705   4.1041   4.3371   4.5073   4.5656
     5.7570   6.2691   6.3329   6.9696   7.2729   7.4497   7.7623   8.2259

          k = 0.3397 0.3397-0.7969 (  1864 PWs)   bands (ev):

   -46.9371 -46.9369 -23.9650 -23.9583 -23.5081 -23.4992 -23.4849 -23.4834
    -7.6798  -7.4540  -7.1394  -6.8955   3.8648   4.3560   4.5994   4.8614
     5.2179   5.9921   6.3365   6.4918   7.4924   7.7515   8.0193   8.2772

     highest occupied level (ev):     9.1425

!    total energy              =    -368.42614438 Ry
     estimated scf accuracy    <       0.00000008 Ry

     The total energy is the sum of the following terms:
     one-electron contribution =    -122.27276081 Ry
     hartree contribution      =      84.82170811 Ry
     xc contribution           =     -64.51791538 Ry
     ewald contribution        =    -266.45717630 Ry

     convergence has been achieved in   8 iterations

     negative rho (up, down):  1.583E-03 0.000E+00

     Forces acting on atoms (cartesian axes, Ry/au):

     atom    1 type  1   force =     0.00000000    0.00000000    0.00000000
     atom    2 type  1   force =     0.00000000    0.00000000    0.00000000
     atom    3 type  2   force =     0.00283297    0.00283297   -0.00000000
     atom    4 type  2   force =     0.00283297   -0.00283297    0.00000000
     atom    5 type  2   force =    -0.00283297   -0.00283297    0.00000000
     atom    6 type  2   force =    -0.00283297    0.00283297    0.00000000

     Total force =     0.008013     Total SCF correction =     0.000015


     Computing stress (Cartesian axis) and pressure


     negative rho (up, down):  1.583E-03 0.000E+00
          total   stress  (Ry/bohr**3)                   (kbar)     P=       -5.30
  -0.00006480   0.00000000   0.00000000           -9.53        0.00        0.00
   0.00000000  -0.00006480   0.00000000            0.00       -9.53        0.00
   0.00000000   0.00000000   0.00002142            0.00        0.00        3.15

     Energy error            =      9.9E-04 Ry
     Gradient error          =      2.8E-03 Ry/Bohr
     Cell gradient error     =      9.5E+00 kbar

     number of scf cycles    =   3
     number of bfgs steps    =   2

     enthalpy           old  =    -368.4251504318 Ry
     enthalpy           new  =    -368.4261443752 Ry

     CASE: enthalpy          _new < enthalpy          _old

     new trust radius        =       0.0062471586 bohr
     new conv_thr            =       0.0000000283 Ry

     new unit-cell volume =    409.54441 a.u.^3 (    60.68822 Ang^3 )
     density =      4.37050 g/cm^3

CELL_PARAMETERS (angstrom)
   4.557123474   0.000000000   0.000000000
   0.000000000   4.557123474   0.000000000
   0.000000000   0.000000000   2.922286630

ATOMIC_POSITIONS (angstrom)
Ti               2.2785636965        2.2785636965        1.4611452831
Ti               0.0000000000        0.0000000000       -0.0000000000
O                3.1701555284        3.1701555284       -0.0000000000
O                0.8915918319        3.6655355612        1.4611452831
O                1.3869718647        1.3869718647       -0.0000000000
O                3.6655355612        0.8915918319        1.4611452831



     Writing config-only to output data dir ./tmp/TiO2.save/ :
     XML data file
     NEW-OLD atomic charge density approx. for the potential
     New effective cutoffs (rho, wfc):  333.24   41.66

     Check: negative core charge=   -0.000013

     negative rho (up, down):  1.580E-03 0.000E+00

     total cpu time spent up to now is       36.3 secs

     per-process dynamical memory:    52.6 Mb

     Self-consistent Calculation

     iteration #  1     ecut=    40.00 Ry     beta= 0.30
     Davidson diagonalization with overlap
     ethr =  1.00E-06,  avg # of iterations =  5.1

     Threshold (ethr) on eigenvalues was too large:
     Diagonalizing with lowered threshold

     Davidson diagonalization with overlap
     ethr =  8.21E-08,  avg # of iterations =  3.9

     negative rho (up, down):  1.581E-03 0.000E+00

     total cpu time spent up to now is       38.0 secs

     total energy              =    -368.42627194 Ry
     estimated scf accuracy    <       0.00004887 Ry

     iteration #  2     ecut=    40.00 Ry     beta= 0.30
     Davidson diagonalization with overlap
     ethr =  1.02E-07,  avg # of iterations =  2.0

     negative rho (up, down):  1.581E-03 0.000E+00

     total cpu time spent up to now is       38.8 secs

     total energy              =    -368.42627025 Ry
     estimated scf accuracy    <       0.00001204 Ry

     iteration #  3     ecut=    40.00 Ry     beta= 0.30
     Davidson diagonalization with overlap
     ethr =  2.51E-08,  avg # of iterations =  3.7

     negative rho (up, down):  1.580E-03 0.000E+00

     total cpu time spent up to now is       39.8 secs

     total energy              =    -368.42627016 Ry
     estimated scf accuracy    <       0.00000352 Ry

     iteration #  4     ecut=    40.00 Ry     beta= 0.30
     Davidson diagonalization with overlap
     ethr =  7.34E-09,  avg # of iterations =  5.1

     negative rho (up, down):  1.581E-03 0.000E+00

     total cpu time spent up to now is       40.8 secs

     total energy              =    -368.42626879 Ry
     estimated scf accuracy    <       0.00001341 Ry

     iteration #  5     ecut=    40.00 Ry     beta= 0.30
     Davidson diagonalization with overlap
     ethr =  7.34E-09,  avg # of iterations =  5.0

     negative rho (up, down):  1.581E-03 0.000E+00

     total cpu time spent up to now is       41.8 secs

     total energy              =    -368.42627136 Ry
     estimated scf accuracy    <       0.00000071 Ry

     iteration #  6     ecut=    40.00 Ry     beta= 0.30
     Davidson diagonalization with overlap
     ethr =  1.48E-09,  avg # of iterations =  4.0

     negative rho (up, down):  1.581E-03 0.000E+00

     total cpu time spent up to now is       42.7 secs

     total energy              =    -368.42627158 Ry
     estimated scf accuracy    <       0.00000013 Ry

     iteration #  7     ecut=    40.00 Ry     beta= 0.30
     Davidson diagonalization with overlap
     ethr =  2.79E-10,  avg # of iterations =  1.7

     negative rho (up, down):  1.581E-03 0.000E+00

     total cpu time spent up to now is       43.6 secs

     total energy              =    -368.42627154 Ry
     estimated scf accuracy    <       0.00000010 Ry

     iteration #  8     ecut=    40.00 Ry     beta= 0.30
     Davidson diagonalization with overlap
     ethr =  2.04E-10,  avg # of iterations =  3.9

     negative rho (up, down):  1.581E-03 0.000E+00

     total cpu time spent up to now is       44.5 secs

     End of self-consistent calculation

          k = 0.0000 0.0000 0.0000 (  1859 PWs)   bands (ev):

   -46.9682 -46.9472 -23.6459 -23.6459 -23.4530 -23.4529 -23.4090 -23.3671
    -8.8578  -7.5815  -6.7411  -6.7411   3.2175   3.6366   3.9516   5.2585
     5.2586   6.5409   6.5409   7.1938   8.5051   8.7277   8.7277   9.1894

          k = 0.0000 0.0000 0.3980 (  1855 PWs)   bands (ev):

   -46.9397 -46.9248 -23.6746 -23.6480 -23.5739 -23.5739 -23.4420 -23.4419
    -8.2096  -7.2438  -7.0420  -7.0419   4.0688   4.2690   4.6914   4.9230
     4.9230   5.7555   6.6540   7.3654   7.3654   7.6501   7.6501   8.6884

          k = 0.0000 0.0000-0.7959 (  1812 PWs)   bands (ev):

   -46.9067 -46.9065 -23.9225 -23.9223 -23.4793 -23.4790 -23.4525 -23.4523
    -7.3393  -7.3393  -7.2213  -7.2212   4.5429   4.5430   5.2777   5.2778
     5.4838   5.4839   6.3619   6.3619   6.6488   6.6488   7.7270   7.7270

          k = 0.0000 0.3403 0.0000 (  1866 PWs)   bands (ev):

   -46.9629 -46.9524 -23.6073 -23.6043 -23.4988 -23.4957 -23.3985 -23.3776
    -8.4517  -7.6892  -7.0332  -6.8982   3.7997   4.0131   4.7870   5.3004
     5.3163   6.0092   6.2758   7.1018   7.2845   7.9098   8.2604   8.7699

          k = 0.0000 0.3403 0.3980 (  1849 PWs)   bands (ev):

   -46.9359 -46.9284 -23.6833 -23.6677 -23.5402 -23.5322 -23.4704 -23.4647
    -7.9316  -7.3540  -7.2005  -7.1048   4.4098   4.6021   4.7201   4.7892
     5.6589   5.6745   5.8666   6.8257   6.9561   7.6293   7.9762   8.5428

          k = 0.0000 0.3403-0.7959 (  1848 PWs)   bands (ev):

   -46.9067 -46.9064 -23.9317 -23.9315 -23.4710 -23.4708 -23.4517 -23.4515
    -7.6401  -7.6401  -6.8925  -6.8924   4.0362   4.0362   5.0183   5.0184
     5.8367   5.8367   6.5891   6.5891   7.2851   7.2851   7.7175   7.7175

          k = 0.3403 0.3403 0.0000 (  1852 PWs)   bands (ev):

   -46.9602 -46.9549 -23.6579 -23.6158 -23.4897 -23.4456 -23.3932 -23.3827
    -8.2876  -7.9020  -7.0159  -6.8578   3.4444   3.9302   5.2015   5.2675
     5.2760   6.2416   6.7297   7.2985   7.5454   7.6113   7.9512   8.4752

          k = 0.3403 0.3403 0.3980 (  1860 PWs)   bands (ev):

   -46.9340 -46.9302 -23.6740 -23.6629 -23.5832 -23.5425 -23.4623 -23.4369
    -7.7732  -7.4831  -7.1879  -7.1384   4.1229   4.3617   4.5327   4.5906
     5.7827   6.2991   6.3601   6.9937   7.3050   7.4784   7.8007   8.2637

          k = 0.3403 0.3403-0.7959 (  1864 PWs)   bands (ev):

   -46.9066 -46.9064 -23.9299 -23.9229 -23.4812 -23.4718 -23.4540 -23.4525
    -7.6519  -7.4189  -7.1204  -6.8693   3.8863   4.3724   4.6262   4.8735
     5.2407   6.0218   6.3759   6.5274   7.5121   7.7811   8.0644   8.3107

     highest occupied level (ev):     9.1894

!    total energy              =    -368.42627156 Ry
     estimated scf accuracy    <          2.2E-09 Ry

     The total energy is the sum of the following terms:
     one-electron contribution =    -121.77432590 Ry
     hartree contribution      =      84.62615040 Ry
     xc contribution           =     -64.52259328 Ry
     ewald contribution        =    -266.75550278 Ry

     convergence has been achieved in   8 iterations

     negative rho (up, down):  1.581E-03 0.000E+00

     Forces acting on atoms (cartesian axes, Ry/au):

     atom    1 type  1   force =     0.00000000    0.00000000    0.00000000
     atom    2 type  1   force =     0.00000000    0.00000000   -0.00000000
     atom    3 type  2   force =     0.00144233    0.00144233   -0.00000000
     atom    4 type  2   force =     0.00144233   -0.00144233    0.00000000
     atom    5 type  2   force =    -0.00144233   -0.00144233    0.00000000
     atom    6 type  2   force =    -0.00144233    0.00144233    0.00000000

     Total force =     0.004080     Total SCF correction =     0.000082


     Computing stress (Cartesian axis) and pressure


     negative rho (up, down):  1.581E-03 0.000E+00
          total   stress  (Ry/bohr**3)                   (kbar)     P=       -3.39
  -0.00003505   0.00000000   0.00000000           -5.16        0.00        0.00
   0.00000000  -0.00003505   0.00000000            0.00       -5.16        0.00
   0.00000000   0.00000000   0.00000105            0.00        0.00        0.15

     Energy error            =      1.3E-04 Ry
     Gradient error          =      1.4E-03 Ry/Bohr
     Cell gradient error     =      5.2E+00 kbar

     number of scf cycles    =   4
     number of bfgs steps    =   3

     enthalpy           old  =    -368.4261443752 Ry
     enthalpy           new  =    -368.4262715608 Ry

     CASE: enthalpy          _new < enthalpy          _old

     new trust radius        =       0.0064306256 bohr
     new conv_thr            =       0.0000000127 Ry

     new unit-cell volume =    408.58393 a.u.^3 (    60.54589 Ang^3 )
     density =      4.38077 g/cm^3

CELL_PARAMETERS (angstrom)
   4.549883058   0.000000000   0.000000000
   0.000000000   4.549883058   0.000000000
   0.000000000   0.000000000   2.924719406

ATOMIC_POSITIONS (angstrom)
Ti               2.2749434854        2.2749434854        1.4623616724
Ti               0.0000000000        0.0000000000       -0.0000000000
O                3.1669720874        3.1669720874       -0.0000000000
O                0.8920286020        3.6578583687        1.4623616724
O                1.3829148834        1.3829148834        0.0000000000
O                3.6578583687        0.8920286020        1.4623616724



     Writing config-only to output data dir ./tmp/TiO2.save/ :
     XML data file
     NEW-OLD atomic charge density approx. for the potential
     New effective cutoffs (rho, wfc):  334.30   41.79

     Check: negative core charge=   -0.000013

     negative rho (up, down):  1.577E-03 0.000E+00

     total cpu time spent up to now is       47.0 secs

     per-process dynamical memory:    52.6 Mb

     Self-consistent Calculation

     iteration #  1     ecut=    40.00 Ry     beta= 0.30
     Davidson diagonalization with overlap
     ethr =  1.00E-06,  avg # of iterations =  4.8

     Threshold (ethr) on eigenvalues was too large:
     Diagonalizing with lowered threshold

     Davidson diagonalization with overlap
     ethr =  6.34E-08,  avg # of iterations =  4.0

     negative rho (up, down):  1.577E-03 0.000E+00

     total cpu time spent up to now is       48.7 secs

     total energy              =    -368.42631314 Ry
     estimated scf accuracy    <       0.00004033 Ry

     iteration #  2     ecut=    40.00 Ry     beta= 0.30
     Davidson diagonalization with overlap
     ethr =  8.40E-08,  avg # of iterations =  1.9

     negative rho (up, down):  1.577E-03 0.000E+00

     total cpu time spent up to now is       49.5 secs

     total energy              =    -368.42630964 Ry
     estimated scf accuracy    <       0.00001104 Ry

     iteration #  3     ecut=    40.00 Ry     beta= 0.30
     Davidson diagonalization with overlap
     ethr =  2.30E-08,  avg # of iterations =  3.4

     negative rho (up, down):  1.577E-03 0.000E+00

     total cpu time spent up to now is       50.5 secs

     total energy              =    -368.42631045 Ry
     estimated scf accuracy    <       0.00000197 Ry

     iteration #  4     ecut=    40.00 Ry     beta= 0.30
     Davidson diagonalization with overlap
     ethr =  4.10E-09,  avg # of iterations =  5.1

     negative rho (up, down):  1.577E-03 0.000E+00

     total cpu time spent up to now is       51.6 secs

     total energy              =    -368.42631009 Ry
     estimated scf accuracy    <       0.00000549 Ry

     iteration #  5     ecut=    40.00 Ry     beta= 0.30
     Davidson diagonalization with overlap
     ethr =  4.10E-09,  avg # of iterations =  5.0

     negative rho (up, down):  1.577E-03 0.000E+00

     total cpu time spent up to now is       52.7 secs

     total energy              =    -368.42631120 Ry
     estimated scf accuracy    <       0.00000034 Ry

     iteration #  6     ecut=    40.00 Ry     beta= 0.30
     Davidson diagonalization with overlap
     ethr =  7.16E-10,  avg # of iterations =  3.9

     negative rho (up, down):  1.577E-03 0.000E+00

     total cpu time spent up to now is       53.6 secs

     End of self-consistent calculation

          k = 0.0000 0.0000 0.0000 (  1859 PWs)   bands (ev):

   -46.9275 -46.9062 -23.6075 -23.6074 -23.4136 -23.4135 -23.3702 -23.3274
    -8.8291  -7.5458  -6.7036  -6.7036   3.2487   3.6657   3.9706   5.2937
     5.2938   6.5836   6.5836   7.2140   8.5396   8.7691   8.7691   9.2420

          k = 0.0000 0.0000 0.3976 (  1855 PWs)   bands (ev):

   -46.8992 -46.8841 -23.6335 -23.6063 -23.5360 -23.5360 -23.4027 -23.4027
    -8.1834  -7.2129  -7.0024  -7.0024   4.0953   4.2918   4.7094   4.9592
     4.9592   5.7857   6.6942   7.4083   7.4083   7.6871   7.6872   8.7192

          k = 0.0000 0.0000-0.7953 (  1812 PWs)   bands (ev):

   -46.8664 -46.8662 -23.8792 -23.8790 -23.4432 -23.4429 -23.4121 -23.4119
    -7.2978  -7.2977  -7.1965  -7.1965   4.5673   4.5674   5.3065   5.3066
     5.5185   5.5185   6.4052   6.4052   6.6660   6.6660   7.7722   7.7722

          k = 0.0000 0.3408 0.0000 (  1866 PWs)   bands (ev):

   -46.9222 -46.9115 -23.5678 -23.5646 -23.4608 -23.4575 -23.3594 -23.3381
    -8.4187  -7.6477  -7.0048  -6.8645   3.8385   4.0523   4.8128   5.3370
     5.3537   6.0372   6.3062   7.1399   7.3025   7.9344   8.3029   8.8169

          k = 0.0000 0.3408 0.3976 (  1849 PWs)   bands (ev):

   -46.8954 -46.8878 -23.6429 -23.6269 -23.5011 -23.4926 -23.4320 -23.4259
    -7.9026  -7.3198  -7.1660  -7.0675   4.4403   4.6300   4.7526   4.8206
     5.6908   5.7076   5.8980   6.8553   6.9825   7.6707   8.0235   8.5849

          k = 0.0000 0.3408-0.7953 (  1848 PWs)   bands (ev):

   -46.8663 -46.8661 -23.8888 -23.8886 -23.4345 -23.4343 -23.4113 -23.4111
    -7.6080  -7.6079  -6.8581  -6.8580   4.0639   4.0639   5.0404   5.0405
     5.8685   5.8685   6.6279   6.6279   7.3265   7.3265   7.7529   7.7530

          k = 0.3408 0.3408 0.0000 (  1852 PWs)   bands (ev):

   -46.9194 -46.9141 -23.6198 -23.5766 -23.4512 -23.4060 -23.3540 -23.3433
    -8.2541  -7.8644  -6.9851  -6.8219   3.4738   3.9688   5.2353   5.2965
     5.3121   6.2753   6.7695   7.3302   7.5671   7.6574   7.9791   8.5114

          k = 0.3408 0.3408 0.3976 (  1860 PWs)   bands (ev):

   -46.8934 -46.8896 -23.6334 -23.6216 -23.5454 -23.5033 -23.4236 -23.3976
    -7.7432  -7.4510  -7.1523  -7.1003   4.1476   4.3908   4.5627   4.6214
     5.8143   6.3353   6.3922   7.0246   7.3426   7.5133   7.8454   8.3078

          k = 0.3408 0.3408-0.7953 (  1864 PWs)   bands (ev):

   -46.8663 -46.8661 -23.8870 -23.8796 -23.4452 -23.4354 -23.4137 -23.4121
    -7.6191  -7.3787  -7.0941  -6.8354   3.9123   4.3935   4.6581   4.8925
     5.2683   6.0571   6.4201   6.5702   7.5378   7.8165   8.1155   8.3504

     highest occupied level (ev):     9.2420

!    total energy              =    -368.42631127 Ry
     estimated scf accuracy    <          8.2E-09 Ry

     The total energy is the sum of the following terms:
     one-electron contribution =    -121.23656572 Ry
     hartree contribution      =      84.42437649 Ry
     xc contribution           =     -64.52979870 Ry
     ewald contribution        =    -267.08432333 Ry

     convergence has been achieved in   6 iterations

     negative rho (up, down):  1.577E-03 0.000E+00

     Forces acting on atoms (cartesian axes, Ry/au):

     atom    1 type  1   force =     0.00000000    0.00000000    0.00000000
     atom    2 type  1   force =     0.00000000    0.00000000    0.00000000
     atom    3 type  2   force =     0.00005170    0.00005170    0.00000000
     atom    4 type  2   force =     0.00005170   -0.00005170   -0.00000000
     atom    5 type  2   force =    -0.00005170   -0.00005170   -0.00000000
     atom    6 type  2   force =    -0.00005170    0.00005170   -0.00000000

     Total force =     0.000146     Total SCF correction =     0.000304
     SCF correction compared to forces is large: reduce conv_thr to get better values


     Computing stress (Cartesian axis) and pressure


     negative rho (up, down):  1.577E-03 0.000E+00
          total   stress  (Ry/bohr**3)                   (kbar)     P=       -0.09
   0.00000094   0.00000000   0.00000000            0.14        0.00        0.00
   0.00000000   0.00000094   0.00000000            0.00        0.14        0.00
   0.00000000   0.00000000  -0.00000373            0.00        0.00       -0.55

     Energy error            =      4.0E-05 Ry
     Gradient error          =      5.2E-05 Ry/Bohr
     Cell gradient error     =      5.5E-01 kbar

     number of scf cycles    =   5
     number of bfgs steps    =   4

     enthalpy           old  =    -368.4262715608 Ry
     enthalpy           new  =    -368.4263112673 Ry

     CASE: enthalpy          _new < enthalpy          _old

     new trust radius        =       0.0003644019 bohr
     new conv_thr            =       0.0000000100 Ry

     new unit-cell volume =    408.57872 a.u.^3 (    60.54512 Ang^3 )
     density =      4.38083 g/cm^3

CELL_PARAMETERS (angstrom)
   4.550059145   0.000000000   0.000000000
   0.000000000   4.550059145   0.000000000
   0.000000000   0.000000000   2.924455776

ATOMIC_POSITIONS (angstrom)
Ti               2.2750315286        2.2750315286        1.4622298574
Ti               0.0000000000        0.0000000000       -0.0000000000
O                3.1671076605        3.1671076605       -0.0000000000
O                0.8920761319        3.6579869253        1.4622298574
O                1.3829553967        1.3829553967       -0.0000000000
O                3.6579869253        0.8920761319        1.4622298574



     Writing config-only to output data dir ./tmp/TiO2.save/ :
     XML data file
     NEW-OLD atomic charge density approx. for the potential
     New effective cutoffs (rho, wfc):  334.27   41.78

     Check: negative core charge=   -0.000013

     negative rho (up, down):  1.577E-03 0.000E+00

     total cpu time spent up to now is       56.1 secs

     per-process dynamical memory:    52.6 Mb

     Self-consistent Calculation

     iteration #  1     ecut=    40.00 Ry     beta= 0.30
     Davidson diagonalization with overlap
     ethr =  1.00E-06,  avg # of iterations =  2.0

     Threshold (ethr) on eigenvalues was too large:
     Diagonalizing with lowered threshold

     Davidson diagonalization with overlap
     ethr =  2.89E-11,  avg # of iterations =  5.6

     negative rho (up, down):  1.577E-03 0.000E+00

     total cpu time spent up to now is       57.8 secs

     total energy              =    -368.42631143 Ry
     estimated scf accuracy    <       0.00000002 Ry

     iteration #  2     ecut=    40.00 Ry     beta= 0.30
     Davidson diagonalization with overlap
     ethr =  3.74E-11,  avg # of iterations =  1.0

     negative rho (up, down):  1.577E-03 0.000E+00

     total cpu time spent up to now is       58.6 secs

     End of self-consistent calculation

          k = 0.0000 0.0000 0.0000 (  1859 PWs)   bands (ev):

   -46.9277 -46.9063 -23.6076 -23.6076 -23.4137 -23.4136 -23.3703 -23.3276
    -8.8292  -7.5460  -6.7038  -6.7038   3.2485   3.6656   3.9705   5.2938
     5.2939   6.5832   6.5832   7.2146   8.5397   8.7688   8.7688   9.2417

          k = 0.0000 0.0000 0.3977 (  1855 PWs)   bands (ev):

   -46.8994 -46.8842 -23.6338 -23.6066 -23.5361 -23.5361 -23.4028 -23.4028
    -8.1833  -7.2128  -7.0027  -7.0027   4.0954   4.2918   4.7095   4.9588
     4.9588   5.7858   6.6939   7.4081   7.4081   7.6868   7.6868   8.7194

          k = 0.0000 0.0000-0.7953 (  1812 PWs)   bands (ev):

   -46.8665 -46.8663 -23.8797 -23.8795 -23.4432 -23.4429 -23.4122 -23.4120
    -7.2982  -7.2981  -7.1963  -7.1963   4.5672   4.5673   5.3063   5.3064
     5.5184   5.5184   6.4043   6.4043   6.6663   6.6663   7.7720   7.7720

          k = 0.0000 0.3408 0.0000 (  1866 PWs)   bands (ev):

   -46.9223 -46.9117 -23.5679 -23.5648 -23.4609 -23.4576 -23.3596 -23.3382
    -8.4188  -7.6479  -7.0049  -6.8646   3.8382   4.0520   4.8126   5.3372
     5.3538   6.0369   6.3058   7.1395   7.3031   7.9348   8.3028   8.8168

          k = 0.0000 0.3408 0.3977 (  1849 PWs)   bands (ev):

   -46.8956 -46.8880 -23.6432 -23.6272 -23.5012 -23.4927 -23.4321 -23.4260
    -7.9026  -7.3200  -7.1660  -7.0677   4.4401   4.6299   4.7525   4.8202
     5.6907   5.7077   5.8977   6.8552   6.9825   7.6704   8.0232   8.5848

          k = 0.0000 0.3408-0.7953 (  1848 PWs)   bands (ev):

   -46.8665 -46.8663 -23.8893 -23.8891 -23.4345 -23.4343 -23.4115 -23.4113
    -7.6082  -7.6081  -6.8580  -6.8580   4.0637   4.0637   5.0401   5.0402
     5.8682   5.8682   6.6278   6.6279   7.3263   7.3263   7.7529   7.7529

          k = 0.3408 0.3408 0.0000 (  1852 PWs)   bands (ev):

   -46.9196 -46.9143 -23.6200 -23.5767 -23.4513 -23.4061 -23.3541 -23.3435
    -8.2543  -7.8647  -6.9853  -6.8221   3.4737   3.9685   5.2355   5.2964
     5.3123   6.2750   6.7691   7.3302   7.5676   7.6569   7.9795   8.5113

          k = 0.3408 0.3408 0.3977 (  1860 PWs)   bands (ev):

   -46.8936 -46.8898 -23.6337 -23.6220 -23.5455 -23.5035 -23.4237 -23.3977
    -7.7432  -7.4511  -7.1525  -7.1006   4.1476   4.3906   4.5625   4.6213
     5.8142   6.3351   6.3920   7.0245   7.3424   7.5129   7.8453   8.3076

          k = 0.3408 0.3408-0.7953 (  1864 PWs)   bands (ev):

   -46.8664 -46.8662 -23.8875 -23.8802 -23.4452 -23.4354 -23.4138 -23.4123
    -7.6194  -7.3791  -7.0939  -6.8353   3.9121   4.3936   4.6578   4.8928
     5.2678   6.0569   6.4192   6.5700   7.5379   7.8164   8.1152   8.3503

     highest occupied level (ev):     9.2417

!    total energy              =    -368.42631143 Ry
     estimated scf accuracy    <          5.5E-09 Ry

     The total energy is the sum of the following terms:
     one-electron contribution =    -121.24140619 Ry
     hartree contribution      =      84.42741901 Ry
     xc contribution           =     -64.53006533 Ry
     ewald contribution        =    -267.08225892 Ry

     convergence has been achieved in   2 iterations

     negative rho (up, down):  1.577E-03 0.000E+00

     Forces acting on atoms (cartesian axes, Ry/au):

     atom    1 type  1   force =     0.00000000    0.00000000   -0.00000000
     atom    2 type  1   force =     0.00000000    0.00000000   -0.00000000
     atom    3 type  2   force =     0.00007756    0.00007756    0.00000000
     atom    4 type  2   force =     0.00007756   -0.00007756   -0.00000000
     atom    5 type  2   force =    -0.00007756   -0.00007756    0.00000000
     atom    6 type  2   force =    -0.00007756    0.00007756    0.00000000

     Total force =     0.000219     Total SCF correction =     0.000240
     SCF correction compared to forces is large: reduce conv_thr to get better values


     Computing stress (Cartesian axis) and pressure


     negative rho (up, down):  1.577E-03 0.000E+00
          total   stress  (Ry/bohr**3)                   (kbar)     P=        0.36
   0.00000372   0.00000000   0.00000000            0.55        0.00        0.00
   0.00000000   0.00000372   0.00000000            0.00        0.55        0.00
   0.00000000   0.00000000  -0.00000003            0.00        0.00       -0.00

     Energy error            =      1.6E-07 Ry
     Gradient error          =      7.8E-05 Ry/Bohr
     Cell gradient error     =      5.5E-01 kbar

     number of scf cycles    =   6
     number of bfgs steps    =   5

     enthalpy           old  =    -368.4263112673 Ry
     enthalpy           new  =    -368.4263114257 Ry

     CASE: enthalpy          _new < enthalpy          _old

     new trust radius        =       0.0004008756 bohr
     new conv_thr            =       0.0000000100 Ry

     new unit-cell volume =    408.58731 a.u.^3 (    60.54639 Ang^3 )
     density =      4.38074 g/cm^3

CELL_PARAMETERS (angstrom)
   4.550332600   0.000000000   0.000000000
   0.000000000   4.550332600   0.000000000
   0.000000000   0.000000000   2.924165783

ATOMIC_POSITIONS (angstrom)
Ti               2.2751682565        2.2751682565        1.4620848609
Ti               0.0000000000        0.0000000000        0.0000000000
O                3.1673130911        3.1673130911       -0.0000000000
O                0.8921448346        3.6581916783        1.4620848609
O                1.3830234218        1.3830234218       -0.0000000000
O                3.6581916783        0.8921448346        1.4620848609



     Writing config-only to output data dir ./tmp/TiO2.save/ :
     XML data file
     NEW-OLD atomic charge density approx. for the potential
     New effective cutoffs (rho, wfc):  334.23   41.78

     Check: negative core charge=   -0.000013

     negative rho (up, down):  1.577E-03 0.000E+00

     total cpu time spent up to now is       61.2 secs

     per-process dynamical memory:    52.6 Mb

     Self-consistent Calculation

     iteration #  1     ecut=    40.00 Ry     beta= 0.30
     Davidson diagonalization with overlap
     ethr =  1.00E-06,  avg # of iterations =  2.0

     Threshold (ethr) on eigenvalues was too large:
     Diagonalizing with lowered threshold

     Davidson diagonalization with overlap
     ethr =  1.46E-11,  avg # of iterations =  6.4

     negative rho (up, down):  1.577E-03 0.000E+00

     total cpu time spent up to now is       63.0 secs

     total energy              =    -368.42631151 Ry
     estimated scf accuracy    <       0.00000001 Ry

     iteration #  2     ecut=    40.00 Ry     beta= 0.30
     Davidson diagonalization with overlap
     ethr =  2.87E-11,  avg # of iterations =  2.9

     negative rho (up, down):  1.577E-03 0.000E+00

     total cpu time spent up to now is       63.9 secs

     End of self-consistent calculation

          k = 0.0000 0.0000 0.0000 (  1859 PWs)   bands (ev):

   -46.9279 -46.9065 -23.6078 -23.6078 -23.4139 -23.4138 -23.3704 -23.3277
    -8.8295  -7.5464  -6.7044  -6.7044   3.2482   3.6653   3.9701   5.2940
     5.2941   6.5823   6.5823   7.2151   8.5396   8.7681   8.7681   9.2409

          k = 0.0000 0.0000 0.3977 (  1855 PWs)   bands (ev):

   -46.8995 -46.8844 -23.6340 -23.6069 -23.5362 -23.5362 -23.4030 -23.4029
    -8.1834  -7.2130  -7.0034  -7.0033   4.0953   4.2919   4.7092   4.9583
     4.9583   5.7857   6.6934   7.4076   7.4076   7.6860   7.6860   8.7193

          k = 0.0000 0.0000-0.7954 (  1812 PWs)   bands (ev):

   -46.8666 -46.8664 -23.8801 -23.8799 -23.4433 -23.4431 -23.4123 -23.4121
    -7.2989  -7.2988  -7.1963  -7.1963   4.5669   4.5670   5.3059   5.3060
     5.5182   5.5182   6.4029   6.4029   6.6663   6.6664   7.7713   7.7713

          k = 0.0000 0.3408 0.0000 (  1866 PWs)   bands (ev):

   -46.9225 -46.9118 -23.5681 -23.5650 -23.4610 -23.4578 -23.3596 -23.3383
    -8.4192  -7.6484  -7.0053  -6.8651   3.8377   4.0516   4.8121   5.3373
     5.3540   6.0363   6.3051   7.1388   7.3035   7.9350   8.3022   8.8162

          k = 0.0000 0.3408 0.3977 (  1849 PWs)   bands (ev):

   -46.8957 -46.8881 -23.6434 -23.6275 -23.5014 -23.4929 -23.4322 -23.4262
    -7.9028  -7.3205  -7.1663  -7.0682   4.4397   4.6296   4.7523   4.8197
     5.6904   5.7075   5.8971   6.8548   6.9823   7.6698   8.0226   8.5843

          k = 0.0000 0.3408-0.7954 (  1848 PWs)   bands (ev):

   -46.8666 -46.8664 -23.8897 -23.8895 -23.4346 -23.4344 -23.4116 -23.4114
    -7.6087  -7.6086  -6.8582  -6.8582   4.0633   4.0633   5.0396   5.0396
     5.8676   5.8676   6.6275   6.6275   7.3257   7.3257   7.7524   7.7524

          k = 0.3408 0.3408 0.0000 (  1852 PWs)   bands (ev):

   -46.9198 -46.9144 -23.6201 -23.5769 -23.4515 -23.4063 -23.3542 -23.3435
    -8.2547  -7.8651  -6.9857  -6.8226   3.4734   3.9680   5.2357   5.2959
     5.3125   6.2743   6.7682   7.3297   7.5680   7.6559   7.9796   8.5107

          k = 0.3408 0.3408 0.3977 (  1860 PWs)   bands (ev):

   -46.8938 -46.8900 -23.6339 -23.6222 -23.5457 -23.5036 -23.4238 -23.3978
    -7.7435  -7.4514  -7.1529  -7.1012   4.1476   4.3903   4.5622   4.6210
     5.8138   6.3347   6.3914   7.0240   7.3417   7.5121   7.8448   8.3071

          k = 0.3408 0.3408-0.7954 (  1864 PWs)   bands (ev):

   -46.8666 -46.8663 -23.8879 -23.8806 -23.4453 -23.4355 -23.4139 -23.4124
    -7.6199  -7.3798  -7.0940  -6.8355   3.9118   4.3934   4.6572   4.8929
     5.2670   6.0564   6.4178   6.5695   7.5376   7.8159   8.1144   8.3497

     highest occupied level (ev):     9.2409

!    total energy              =    -368.42631151 Ry
     estimated scf accuracy    <          2.8E-09 Ry

     The total energy is the sum of the following terms:
     one-electron contribution =    -121.25141301 Ry
     hartree contribution      =      84.43151419 Ry
     xc contribution           =     -64.53000808 Ry
     ewald contribution        =    -267.07640461 Ry

     convergence has been achieved in   2 iterations

     negative rho (up, down):  1.577E-03 0.000E+00

     Forces acting on atoms (cartesian axes, Ry/au):

     atom    1 type  1   force =     0.00000000    0.00000000   -0.00000000
     atom    2 type  1   force =     0.00000000    0.00000000   -0.00000000
     atom    3 type  2   force =     0.00006633    0.00006633   -0.00000000
     atom    4 type  2   force =     0.00006633   -0.00006633    0.00000000
     atom    5 type  2   force =    -0.00006633   -0.00006633   -0.00000000
     atom    6 type  2   force =    -0.00006633    0.00006633    0.00000000

     Total force =     0.000188     Total SCF correction =     0.000092
     SCF correction compared to forces is large: reduce conv_thr to get better values


     Computing stress (Cartesian axis) and pressure


     negative rho (up, down):  1.577E-03 0.000E+00
          total   stress  (Ry/bohr**3)                   (kbar)     P=        0.21
   0.00000157   0.00000000   0.00000000            0.23        0.00        0.00
   0.00000000   0.00000157   0.00000000            0.00        0.23        0.00
   0.00000000   0.00000000   0.00000122            0.00        0.00        0.18

     Energy error            =      8.8E-08 Ry
     Gradient error          =      6.6E-05 Ry/Bohr
     Cell gradient error     =      2.3E-01 kbar

     bfgs converged in   7 scf cycles and   6 bfgs steps
     (criteria: energy <  1.0E-04 Ry, force <  1.0E-03 Ry/Bohr, cell <  5.0E-01 kbar)

     End of BFGS Geometry Optimization

     Final enthalpy           =    -368.4263115138 Ry

     File ./tmp/TiO2.bfgs deleted, as requested
Begin final coordinates
     new unit-cell volume =    408.58731 a.u.^3 (    60.54639 Ang^3 )
     density =      4.38074 g/cm^3

CELL_PARAMETERS (angstrom)
   4.550332600   0.000000000   0.000000000
   0.000000000   4.550332600   0.000000000
   0.000000000   0.000000000   2.924165783

ATOMIC_POSITIONS (angstrom)
Ti               2.2751682565        2.2751682565        1.4620848609
Ti               0.0000000000        0.0000000000        0.0000000000
O                3.1673130911        3.1673130911       -0.0000000000
O                0.8921448346        3.6581916783        1.4620848609
O                1.3830234218        1.3830234218       -0.0000000000
O                3.6581916783        0.8921448346        1.4620848609
End final coordinates



     Writing config-only to output data dir ./tmp/TiO2.save/ :
     XML data file

     Final scf calculation at the relaxed structure.
     The G-vectors are recalculated for the final unit cell
     Results may differ from those at the preceding step.

     G-vector sticks info
     --------------------
     sticks:   dense  smooth     PW     G-vecs:    dense   smooth      PW
     Sum        1885     949    293                39459    13955    2369

     Using Slab Decomposition



     bravais-lattice index     =            0
     lattice parameter (alat)  =       8.7906  a.u.
     unit-cell volume          =     408.5873 (a.u.)^3
     number of atoms/cell      =            6
     number of atomic types    =            2
     number of electrons       =        48.00
     number of Kohn-Sham states=           24
     kinetic-energy cutoff     =      40.0000  Ry
     charge density cutoff     =     320.0000  Ry
     scf convergence threshold =      1.0E-08
     mixing beta               =       0.3000
     number of iterations used =            8  plain     mixing
     press convergence thresh. =      5.0E-01
     Exchange-correlation= PZ
                           (   1   1   0   0   0   0   0)

     celldm(1)=   8.790590  celldm(2)=   0.000000  celldm(3)=   0.000000
     celldm(4)=   0.000000  celldm(5)=   0.000000  celldm(6)=   0.000000

     crystal axes: (cart. coord. in units of alat)
               a(1) = (   0.978192   0.000000   0.000000 )  
               a(2) = (   0.000000   0.978192   0.000000 )  
               a(3) = (   0.000000   0.000000   0.628612 )  

     reciprocal axes: (cart. coord. in units 2 pi/alat)
               b(1) = (  1.022295  0.000000  0.000000 )  
               b(2) = (  0.000000  1.022295  0.000000 )  
               b(3) = (  0.000000  0.000000  1.590806 )  


     PseudoPot. # 1 for Ti read from file:
     /home/dean_gov/qe-pp/gbrv_lda/ti_lda_v1.4.uspp.F.UPF
     MD5 check sum: 0d9f225c038fe889ca2a701dcc8d72cb
     Pseudo is Ultrasoft + core correction, Zval = 12.0
     Generated by new atomic code, or converted to UPF format
     Using radial grid of  851 points,  6 beta functions with: 
                l(1) =   0
                l(2) =   0
                l(3) =   1
                l(4) =   1
                l(5) =   2
                l(6) =   2
     Q(r) pseudized with  6 coefficients,  rinner =    1.000   1.000   1.000
                                                       1.000   1.000

     PseudoPot. # 2 for O  read from file:
     /home/dean_gov/qe-pp/gbrv_lda/o_lda_v1.2.uspp.F.UPF
     MD5 check sum: 194b818514d2a7dbb603bb78519a4f40
     Pseudo is Ultrasoft + core correction, Zval =  6.0
     Generated by new atomic code, or converted to UPF format
     Using radial grid of  737 points,  5 beta functions with: 
                l(1) =   0
                l(2) =   0
                l(3) =   1
                l(4) =   1
                l(5) =   2
     Q(r) pseudized with  8 coefficients,  rinner =    0.900   0.900   0.900
                                                       0.900   0.900

     atomic species   valence    mass     pseudopotential
     Ti               12.00    47.86700     Ti( 1.00)
     O                 6.00    15.99900     O ( 1.00)

     16 Sym. Ops., with inversion, found ( 8 have fractional translation)



   Cartesian axes

     site n.     atom                  positions (alat units)
         1        Ti     tau(   1) = (   0.4890963   0.4890963   0.3143065  )
         2        Ti     tau(   2) = (   0.0000000   0.0000000   0.0000000  )
         3        O      tau(   3) = (   0.6808820   0.6808820  -0.0000000  )
         4        O      tau(   4) = (   0.1917857   0.7864069   0.3143065  )
         5        O      tau(   5) = (   0.2973106   0.2973106  -0.0000000  )
         6        O      tau(   6) = (   0.7864069   0.1917857   0.3143065  )

     number of k points=     9
                       cart. coord. in units 2pi/alat
        k(    1) = (   0.0000000   0.0000000   0.0000000), wk =   0.0555556
        k(    2) = (   0.0000000   0.0000000   0.3977015), wk =   0.1111111
        k(    3) = (   0.0000000   0.0000000  -0.7954029), wk =   0.0555556
        k(    4) = (   0.0000000   0.3407648   0.0000000), wk =   0.2222222
        k(    5) = (   0.0000000   0.3407648   0.3977015), wk =   0.4444444
        k(    6) = (   0.0000000   0.3407648  -0.7954029), wk =   0.2222222
        k(    7) = (   0.3407648   0.3407648   0.0000000), wk =   0.2222222
        k(    8) = (   0.3407648   0.3407648   0.3977015), wk =   0.4444444
        k(    9) = (   0.3407648   0.3407648  -0.7954029), wk =   0.2222222

     Dense  grid:    39459 G-vectors     FFT dimensions: (  50,  50,  32)

     Smooth grid:    13955 G-vectors     FFT dimensions: (  36,  36,  24)

     Estimated max dynamical RAM per process >     159.05 MB

     Check: negative core charge=   -0.000013

     Initial potential from superposition of free atoms

     starting charge      45.9999, renormalised to      48.0000

     negative rho (up, down):  1.921E-03 0.000E+00
     Starting wfcs are   36 randomized atomic wfcs

     total cpu time spent up to now is       66.9 secs

     per-process dynamical memory:    42.8 Mb

     Self-consistent Calculation

     iteration #  1     ecut=    40.00 Ry     beta= 0.30
     Davidson diagonalization with overlap
     ethr =  1.00E-06,  avg # of iterations =  8.0

     negative rho (up, down):  2.081E-03 0.000E+00

     total cpu time spent up to now is       68.2 secs

     total energy              =    -368.20841697 Ry
     estimated scf accuracy    <       1.11216553 Ry

     iteration #  2     ecut=    40.00 Ry     beta= 0.30
     Davidson diagonalization with overlap
     ethr =  2.32E-03,  avg # of iterations =  3.4

     negative rho (up, down):  2.051E-03 0.000E+00

     total cpu time spent up to now is       69.1 secs

     total energy              =    -368.41028858 Ry
     estimated scf accuracy    <       0.04585324 Ry

     iteration #  3     ecut=    40.00 Ry     beta= 0.30
     Davidson diagonalization with overlap
     ethr =  9.55E-05,  avg # of iterations =  4.3

     negative rho (up, down):  1.883E-03 0.000E+00

     total cpu time spent up to now is       70.0 secs

     total energy              =    -368.39398648 Ry
     estimated scf accuracy    <       0.08311094 Ry

     iteration #  4     ecut=    40.00 Ry     beta= 0.30
     Davidson diagonalization with overlap
     ethr =  9.55E-05,  avg # of iterations =  5.0

     negative rho (up, down):  1.898E-03 0.000E+00

     total cpu time spent up to now is       71.1 secs

     total energy              =    -368.39880303 Ry
     estimated scf accuracy    <       0.13720318 Ry

     iteration #  5     ecut=    40.00 Ry     beta= 0.30
     Davidson diagonalization with overlap
     ethr =  9.55E-05,  avg # of iterations =  5.0

     negative rho (up, down):  1.849E-03 0.000E+00

     total cpu time spent up to now is       72.1 secs

     total energy              =    -368.42591337 Ry
     estimated scf accuracy    <       0.00488581 Ry

     iteration #  6     ecut=    40.00 Ry     beta= 0.30
     Davidson diagonalization with overlap
     ethr =  1.02E-05,  avg # of iterations =  2.9

     negative rho (up, down):  1.844E-03 0.000E+00

     total cpu time spent up to now is       72.9 secs

     total energy              =    -368.42535845 Ry
     estimated scf accuracy    <       0.00342085 Ry

     iteration #  7     ecut=    40.00 Ry     beta= 0.30
     Davidson diagonalization with overlap
     ethr =  7.13E-06,  avg # of iterations =  4.0

     negative rho (up, down):  1.845E-03 0.000E+00

     total cpu time spent up to now is       73.8 secs

     total energy              =    -368.42622676 Ry
     estimated scf accuracy    <       0.00021488 Ry

     iteration #  8     ecut=    40.00 Ry     beta= 0.30
     Davidson diagonalization with overlap
     ethr =  4.48E-07,  avg # of iterations =  3.8

     negative rho (up, down):  1.850E-03 0.000E+00

     total cpu time spent up to now is       74.6 secs

     total energy              =    -368.42613360 Ry
     estimated scf accuracy    <       0.00029664 Ry

     iteration #  9     ecut=    40.00 Ry     beta= 0.30
     Davidson diagonalization with overlap
     ethr =  4.48E-07,  avg # of iterations =  4.1

     negative rho (up, down):  1.850E-03 0.000E+00

     total cpu time spent up to now is       75.5 secs

     total energy              =    -368.42619924 Ry
     estimated scf accuracy    <       0.00000950 Ry

     iteration # 10     ecut=    40.00 Ry     beta= 0.30
     Davidson diagonalization with overlap
     ethr =  1.98E-08,  avg # of iterations =  3.6

     negative rho (up, down):  1.849E-03 0.000E+00

     total cpu time spent up to now is       76.3 secs

     total energy              =    -368.42620018 Ry
     estimated scf accuracy    <       0.00000707 Ry

     iteration # 11     ecut=    40.00 Ry     beta= 0.30
     Davidson diagonalization with overlap
     ethr =  1.47E-08,  avg # of iterations =  1.0

     negative rho (up, down):  1.849E-03 0.000E+00

     total cpu time spent up to now is       77.1 secs

     total energy              =    -368.42619880 Ry
     estimated scf accuracy    <       0.00000624 Ry

     iteration # 12     ecut=    40.00 Ry     beta= 0.30
     Davidson diagonalization with overlap
     ethr =  1.30E-08,  avg # of iterations =  3.2

     negative rho (up, down):  1.849E-03 0.000E+00

     total cpu time spent up to now is       77.9 secs

     total energy              =    -368.42619937 Ry
     estimated scf accuracy    <       0.00000075 Ry

     iteration # 13     ecut=    40.00 Ry     beta= 0.30
     Davidson diagonalization with overlap
     ethr =  1.57E-09,  avg # of iterations =  3.9

     negative rho (up, down):  1.849E-03 0.000E+00

     total cpu time spent up to now is       78.8 secs

     total energy              =    -368.42619955 Ry
     estimated scf accuracy    <       0.00000003 Ry

     iteration # 14     ecut=    40.00 Ry     beta= 0.30
     Davidson diagonalization with overlap
     ethr =  5.69E-11,  avg # of iterations =  4.3

     negative rho (up, down):  1.849E-03 0.000E+00

     total cpu time spent up to now is       79.7 secs

     total energy              =    -368.42619956 Ry
     estimated scf accuracy    <       0.00000002 Ry

     iteration # 15     ecut=    40.00 Ry     beta= 0.30
     Davidson diagonalization with overlap
     ethr =  4.98E-11,  avg # of iterations =  1.1

     negative rho (up, down):  1.849E-03 0.000E+00

     total cpu time spent up to now is       80.5 secs

     total energy              =    -368.42619955 Ry
     estimated scf accuracy    <       0.00000002 Ry

     iteration # 16     ecut=    40.00 Ry     beta= 0.30
     Davidson diagonalization with overlap
     ethr =  4.10E-11,  avg # of iterations =  3.7

     negative rho (up, down):  1.849E-03 0.000E+00

     total cpu time spent up to now is       81.4 secs

     End of self-consistent calculation

          k = 0.0000 0.0000 0.0000 (  1787 PWs)   bands (ev):

   -46.9280 -46.9066 -23.6079 -23.6079 -23.4140 -23.4139 -23.3704 -23.3277
    -8.8294  -7.5463  -6.7044  -6.7044   3.2482   3.6653   3.9701   5.2941
     5.2942   6.5823   6.5823   7.2152   8.5397   8.7681   8.7681   9.2410

          k = 0.0000 0.0000 0.3977 (  1747 PWs)   bands (ev):

   -46.8996 -46.8845 -23.6341 -23.6069 -23.5363 -23.5363 -23.4031 -23.4030
    -8.1834  -7.2130  -7.0033  -7.0033   4.0953   4.2918   4.7092   4.9583
     4.9583   5.7857   6.6935   7.4077   7.4077   7.6860   7.6861   8.7194

          k = 0.0000 0.0000-0.7954 (  1756 PWs)   bands (ev):

   -46.8667 -46.8665 -23.8802 -23.8800 -23.4434 -23.4432 -23.4124 -23.4122
    -7.2989  -7.2988  -7.1963  -7.1962   4.5669   4.5670   5.3059   5.3060
     5.5182   5.5182   6.4029   6.4029   6.6664   6.6664   7.7713   7.7713

          k = 0.0000 0.3408 0.0000 (  1743 PWs)   bands (ev):

   -46.9226 -46.9119 -23.5682 -23.5651 -23.4611 -23.4579 -23.3597 -23.3383
    -8.4191  -7.6483  -7.0052  -6.8651   3.8377   4.0516   4.8121   5.3374
     5.3541   6.0363   6.3051   7.1388   7.3036   7.9351   8.3023   8.8162

          k = 0.0000 0.3408 0.3977 (  1747 PWs)   bands (ev):

   -46.8958 -46.8882 -23.6435 -23.6275 -23.5015 -23.4930 -23.4323 -23.4263
    -7.9028  -7.3205  -7.1663  -7.0682   4.4397   4.6296   4.7523   4.8197
     5.6904   5.7076   5.8971   6.8549   6.9823   7.6698   8.0226   8.5844

          k = 0.0000 0.3408-0.7954 (  1740 PWs)   bands (ev):

   -46.8667 -46.8665 -23.8898 -23.8896 -23.4348 -23.4345 -23.4116 -23.4114
    -7.6086  -7.6086  -6.8582  -6.8581   4.0633   4.0633   5.0396   5.0396
     5.8676   5.8676   6.6275   6.6275   7.3257   7.3258   7.7524   7.7525

          k = 0.3408 0.3408 0.0000 (  1758 PWs)   bands (ev):

   -46.9199 -46.9145 -23.6202 -23.5770 -23.4516 -23.4064 -23.3542 -23.3435
    -8.2546  -7.8651  -6.9857  -6.8226   3.4734   3.9680   5.2358   5.2959
     5.3125   6.2744   6.7682   7.3297   7.5681   7.6559   7.9797   8.5107

          k = 0.3408 0.3408 0.3977 (  1740 PWs)   bands (ev):

   -46.8938 -46.8900 -23.6340 -23.6223 -23.5458 -23.5037 -23.4239 -23.3979
    -7.7434  -7.4514  -7.1528  -7.1011   4.1476   4.3904   4.5622   4.6211
     5.8139   6.3348   6.3915   7.0241   7.3418   7.5122   7.8448   8.3071

          k = 0.3408 0.3408-0.7954 (  1724 PWs)   bands (ev):

   -46.8666 -46.8664 -23.8879 -23.8806 -23.4454 -23.4356 -23.4140 -23.4124
    -7.6198  -7.3797  -7.0939  -6.8354   3.9119   4.3935   4.6573   4.8929
     5.2670   6.0565   6.4178   6.5696   7.5377   7.8160   8.1145   8.3498

     highest occupied level (ev):     9.2410

!    total energy              =    -368.42619955 Ry
     estimated scf accuracy    <          3.7E-10 Ry

     The total energy is the sum of the following terms:
     one-electron contribution =    -121.25140023 Ry
     hartree contribution      =      84.43164059 Ry
     xc contribution           =     -64.53003530 Ry
     ewald contribution        =    -267.07640461 Ry

     convergence has been achieved in  16 iterations

     negative rho (up, down):  1.849E-03 0.000E+00

     Forces acting on atoms (cartesian axes, Ry/au):

     atom    1 type  1   force =     0.00000000    0.00000000    0.00000000
     atom    2 type  1   force =     0.00000000    0.00000000    0.00000000
     atom    3 type  2   force =     0.00007250    0.00007250    0.00000000
     atom    4 type  2   force =     0.00007250   -0.00007250    0.00000000
     atom    5 type  2   force =    -0.00007250   -0.00007250    0.00000000
     atom    6 type  2   force =    -0.00007250    0.00007250    0.00000000

     Total force =     0.000205     Total SCF correction =     0.000003


     Computing stress (Cartesian axis) and pressure


     negative rho (up, down):  1.849E-03 0.000E+00
          total   stress  (Ry/bohr**3)                   (kbar)     P=       -0.03
  -0.00000034   0.00000000   0.00000000           -0.05        0.00        0.00
   0.00000000  -0.00000034   0.00000000            0.00       -0.05        0.00
   0.00000000   0.00000000   0.00000009            0.00        0.00        0.01


     Writing all to output data dir ./tmp/TiO2.save/ :
     XML data file, charge density, pseudopotentials, collected wavefunctions

     init_run     :      2.53s CPU      2.93s WALL (       2 calls)
     electrons    :     44.36s CPU     60.77s WALL (       8 calls)
     update_pot   :      0.09s CPU      0.10s WALL (       6 calls)
     forces       :      2.01s CPU      3.04s WALL (       8 calls)
     stress       :     11.47s CPU     14.72s WALL (       8 calls)

     Called by init_run:
     wfcinit      :      0.47s CPU      0.50s WALL (       2 calls)
     potinit      :      0.33s CPU      0.33s WALL (       2 calls)
     hinit0       :      1.43s CPU      1.47s WALL (       2 calls)

     Called by electrons:
     c_bands      :     22.04s CPU     22.39s WALL (      66 calls)
     sum_band     :     13.28s CPU     21.91s WALL (      66 calls)
     v_of_rho     :      0.40s CPU      0.41s WALL (      70 calls)
     newd         :      9.49s CPU     18.04s WALL (      70 calls)
     mix_rho      :      0.14s CPU      0.15s WALL (      66 calls)

     Called by c_bands:
     init_us_2    :      0.99s CPU      1.02s WALL (    1350 calls)
     cegterg      :     20.33s CPU     20.64s WALL (     594 calls)

     Called by *egterg:
     cdiaghg      :      1.17s CPU      1.19s WALL (    2721 calls)
     h_psi        :     14.70s CPU     14.95s WALL (    2829 calls)
     s_psi        :      1.23s CPU      1.25s WALL (    2829 calls)
     g_psi        :      0.16s CPU      0.17s WALL (    2217 calls)

     Called by h_psi:
     h_psi:calbec :      1.55s CPU      1.57s WALL (    2829 calls)
     vloc_psi     :     11.79s CPU     12.00s WALL (    2829 calls)
                                        0.00s GPU  (    2829 calls)
     add_vuspsi   :      1.23s CPU      1.25s WALL (    2829 calls)

     General routines
     calbec       :      2.83s CPU      2.88s WALL (    4647 calls)
     fft          :      0.61s CPU      0.64s WALL (     478 calls)
     ffts         :      0.27s CPU      0.27s WALL (     136 calls)
     fftw         :     11.68s CPU     11.90s WALL (  101940 calls)
     interpolate  :      0.31s CPU      0.31s WALL (      70 calls)

     Parallel routines

     PWSCF        :   1m 1.42s CPU   1m23.48s WALL


   This run was terminated on:  19:47:12  17Sep2025            

=------------------------------------------------------------------------------=
   JOB DONE.
=------------------------------------------------------------------------------=
Note: The following floating-point exceptions are signalling: IEEE_INVALID_FLAG
