
     Program PWSCF v.7.5 starts on 17Sep2025 at 19:31:39 

     This program is part of the open-source Quantum ESPRESSO suite
     for quantum simulation of materials; please cite
         "P. Giannozzi et al., J. Phys.:Condens. Matter 21 395502 (2009);
         "P. Giannozzi et al., J. Phys.:Condens. Matter 29 465901 (2017);
         "P. Giannozzi et al., J. Chem. Phys. 152 154105 (2020);
          URL http://www.quantum-espresso.org", 
     in publications or presentations arising from this work. More details at
     http://www.quantum-espresso.org/quote

     Parallel version (MPI & OpenMP), running on       1 processor cores
     Number of MPI processes:                 1
     Threads/MPI process:                     1

     MPI processes distributed on     1 nodes
     4251 MiB available memory on the printing compute node when the environment starts

     Reading input from TiO2.scf.E10.in

     Current dimensions of program PWSCF are:
     Max number of different atomic species (ntypx) = 10
     Max number of k-points (npk) =  40000
     Max angular momentum in pseudopotentials (lmaxx) =  4

     IMPORTANT: XC functional enforced from input :
     Exchange-correlation= PZ
                           (   1   1   0   0   0   0   0)
     Any further DFT definition will be discarded
     Please, verify this is what you really want


     Subspace diagonalization in iterative solution of the eigenvalue problem:
     a serial algorithm will be used


     G-vector sticks info
     --------------------
     sticks:   dense  smooth     PW     G-vecs:    dense   smooth      PW
     Sum         489     241     89                 5239     1859     431

     Using Slab Decomposition



     bravais-lattice index     =            6
     lattice parameter (alat)  =       8.7906  a.u.
     unit-cell volume          =     433.6888 (a.u.)^3
     number of atoms/cell      =            6
     number of atomic types    =            2
     number of electrons       =        48.00
     number of Kohn-Sham states=           24
     kinetic-energy cutoff     =      10.0000  Ry
     charge density cutoff     =      80.0000  Ry
     scf convergence threshold =      1.0E-06
     mixing beta               =       0.3000
     number of iterations used =            8  plain     mixing
     Exchange-correlation= PZ
                           (   1   1   0   0   0   0   0)

     celldm(1)=   8.790590  celldm(2)=   0.000000  celldm(3)=   0.638446
     celldm(4)=   0.000000  celldm(5)=   0.000000  celldm(6)=   0.000000

     crystal axes: (cart. coord. in units of alat)
               a(1) = (   1.000000   0.000000   0.000000 )  
               a(2) = (   0.000000   1.000000   0.000000 )  
               a(3) = (   0.000000   0.000000   0.638446 )  

     reciprocal axes: (cart. coord. in units 2 pi/alat)
               b(1) = (  1.000000  0.000000  0.000000 )  
               b(2) = (  0.000000  1.000000  0.000000 )  
               b(3) = (  0.000000  0.000000  1.566303 )  


     PseudoPot. # 1 for Ti read from file:
     /home/dean_gov/qe-pp/gbrv_lda/ti_lda_v1.4.uspp.F.UPF
     MD5 check sum: 0d9f225c038fe889ca2a701dcc8d72cb
     Pseudo is Ultrasoft + core correction, Zval = 12.0
     Generated by new atomic code, or converted to UPF format
     Using radial grid of  851 points,  6 beta functions with: 
                l(1) =   0
                l(2) =   0
                l(3) =   1
                l(4) =   1
                l(5) =   2
                l(6) =   2
     Q(r) pseudized with  6 coefficients,  rinner =    1.000   1.000   1.000
                                                       1.000   1.000

     PseudoPot. # 2 for O  read from file:
     /home/dean_gov/qe-pp/gbrv_lda/o_lda_v1.2.uspp.F.UPF
     MD5 check sum: 194b818514d2a7dbb603bb78519a4f40
     Pseudo is Ultrasoft + core correction, Zval =  6.0
     Generated by new atomic code, or converted to UPF format
     Using radial grid of  737 points,  5 beta functions with: 
                l(1) =   0
                l(2) =   0
                l(3) =   1
                l(4) =   1
                l(5) =   2
     Q(r) pseudized with  8 coefficients,  rinner =    0.900   0.900   0.900
                                                       0.900   0.900

     atomic species   valence    mass     pseudopotential
     Ti               12.00    47.86700     Ti( 1.00)
     O                 6.00    15.99900     O ( 1.00)

     16 Sym. Ops., with inversion, found ( 8 have fractional translation)



   Cartesian axes

     site n.     atom                  positions (alat units)
         1        Ti     tau(   1) = (   0.5000004   0.5000004   0.3192234  )
         2        Ti     tau(   2) = (   0.0000000   0.0000000   0.0000000  )
         3        O      tau(   3) = (   0.6950896   0.6950896   0.0000000  )
         4        O      tau(   4) = (   0.1950892   0.8049117   0.3192234  )
         5        O      tau(   5) = (   0.3049112   0.3049112   0.0000000  )
         6        O      tau(   6) = (   0.8049117   0.1950892   0.3192234  )

     number of k points=     9
                       cart. coord. in units 2pi/alat
        k(    1) = (   0.0000000   0.0000000   0.0000000), wk =   0.0555556
        k(    2) = (   0.0000000   0.0000000   0.3915758), wk =   0.1111111
        k(    3) = (   0.0000000   0.0000000  -0.7831517), wk =   0.0555556
        k(    4) = (   0.0000000   0.3333333   0.0000000), wk =   0.2222222
        k(    5) = (   0.0000000   0.3333333   0.3915758), wk =   0.4444444
        k(    6) = (   0.0000000   0.3333333  -0.7831517), wk =   0.2222222
        k(    7) = (   0.3333333   0.3333333   0.0000000), wk =   0.2222222
        k(    8) = (   0.3333333   0.3333333   0.3915758), wk =   0.4444444
        k(    9) = (   0.3333333   0.3333333  -0.7831517), wk =   0.2222222

     Dense  grid:     5239 G-vectors     FFT dimensions: (  30,  30,  16)

     Smooth grid:     1859 G-vectors     FFT dimensions: (  18,  18,  12)

     Estimated max dynamical RAM per process >      21.09 MB

     Check: negative core charge=   -0.001577

     Initial potential from superposition of free atoms

     starting charge      45.9999, renormalised to      48.0000

     negative rho (up, down):  1.402E-02 0.000E+00
     Starting wfcs are   36 randomized atomic wfcs

     total cpu time spent up to now is        0.7 secs

     per-process dynamical memory:    19.6 Mb

     Self-consistent Calculation

     iteration #  1     ecut=    10.00 Ry     beta= 0.30
     Davidson diagonalization with overlap
     ethr =  1.00E-02,  avg # of iterations =  2.0

     negative rho (up, down):  1.484E-02 0.000E+00

     total cpu time spent up to now is        0.8 secs

     total energy              =    -350.91764735 Ry
     estimated scf accuracy    <       7.67378438 Ry

     iteration #  2     ecut=    10.00 Ry     beta= 0.30
     Davidson diagonalization with overlap
     ethr =  1.00E-02,  avg # of iterations =  1.0

     negative rho (up, down):  2.222E-02 0.000E+00

     total cpu time spent up to now is        0.8 secs

     total energy              =    -349.03178127 Ry
     estimated scf accuracy    <       2.85131407 Ry

     iteration #  3     ecut=    10.00 Ry     beta= 0.30
     Davidson diagonalization with overlap
     ethr =  5.94E-03,  avg # of iterations =  2.0

     negative rho (up, down):  2.203E-02 0.000E+00

     total cpu time spent up to now is        0.9 secs

     total energy              =    -349.36460165 Ry
     estimated scf accuracy    <       0.08131513 Ry

     iteration #  4     ecut=    10.00 Ry     beta= 0.30
     Davidson diagonalization with overlap
     ethr =  1.69E-04,  avg # of iterations =  3.6

     negative rho (up, down):  2.057E-02 0.000E+00

     total cpu time spent up to now is        1.0 secs

     total energy              =    -349.38005640 Ry
     estimated scf accuracy    <       0.01027815 Ry

     iteration #  5     ecut=    10.00 Ry     beta= 0.30
     Davidson diagonalization with overlap
     ethr =  2.14E-05,  avg # of iterations =  2.9

     negative rho (up, down):  1.944E-02 0.000E+00

     total cpu time spent up to now is        1.1 secs

     total energy              =    -349.37624973 Ry
     estimated scf accuracy    <       0.00913022 Ry

     iteration #  6     ecut=    10.00 Ry     beta= 0.30
     Davidson diagonalization with overlap
     ethr =  1.90E-05,  avg # of iterations =  4.8

     negative rho (up, down):  1.890E-02 0.000E+00

     total cpu time spent up to now is        1.2 secs

     total energy              =    -349.37280609 Ry
     estimated scf accuracy    <       0.04335056 Ry

     iteration #  7     ecut=    10.00 Ry     beta= 0.30
     Davidson diagonalization with overlap
     ethr =  1.90E-05,  avg # of iterations =  3.7

     negative rho (up, down):  1.843E-02 0.000E+00

     total cpu time spent up to now is        1.4 secs

     total energy              =    -349.37706149 Ry
     estimated scf accuracy    <       0.00247524 Ry

     iteration #  8     ecut=    10.00 Ry     beta= 0.30
     Davidson diagonalization with overlap
     ethr =  5.16E-06,  avg # of iterations =  3.6

     negative rho (up, down):  1.809E-02 0.000E+00

     total cpu time spent up to now is        1.5 secs

     total energy              =    -349.37779425 Ry
     estimated scf accuracy    <       0.00001897 Ry

     iteration #  9     ecut=    10.00 Ry     beta= 0.30
     Davidson diagonalization with overlap
     ethr =  3.95E-08,  avg # of iterations =  4.4

     negative rho (up, down):  1.785E-02 0.000E+00

     total cpu time spent up to now is        1.6 secs

     total energy              =    -349.37786000 Ry
     estimated scf accuracy    <       0.00000293 Ry

     iteration # 10     ecut=    10.00 Ry     beta= 0.30
     Davidson diagonalization with overlap
     ethr =  6.11E-09,  avg # of iterations =  5.1

     negative rho (up, down):  1.768E-02 0.000E+00

     total cpu time spent up to now is        1.7 secs

     total energy              =    -349.37786445 Ry
     estimated scf accuracy    <       0.00002938 Ry

     iteration # 11     ecut=    10.00 Ry     beta= 0.30
     Davidson diagonalization with overlap
     ethr =  6.11E-09,  avg # of iterations =  5.1

     negative rho (up, down):  1.756E-02 0.000E+00

     total cpu time spent up to now is        1.8 secs

     total energy              =    -349.37788035 Ry
     estimated scf accuracy    <       0.00000108 Ry

     iteration # 12     ecut=    10.00 Ry     beta= 0.30
     Davidson diagonalization with overlap
     ethr =  2.24E-09,  avg # of iterations =  1.0

     negative rho (up, down):  1.728E-02 0.000E+00

     total cpu time spent up to now is        1.9 secs

     End of self-consistent calculation

          k = 0.0000 0.0000 0.0000 (   233 PWs)   bands (ev):

   -60.3063 -60.1923 -28.6923 -28.6923 -27.9551 -27.9186 -27.9186 -26.4365
   -13.7996 -13.0990 -11.8903 -11.8902   4.1166   5.1010   6.6822   8.5885
     8.5885   8.7557   8.7558   9.6063  10.2505  10.2506  10.3500  11.5383

          k = 0.0000 0.0000 0.3916 (   230 PWs)   bands (ev):

   -60.2790 -60.1494 -28.7012 -28.0822 -28.0822 -27.2176 -27.2176 -27.1836
   -13.3481 -12.2956 -12.2955 -12.2927   5.2189   6.7318   6.9677   6.9677
     6.9968   7.9579   8.3308   9.4474   9.4475   9.8427   9.8427  10.8593

          k = 0.0000 0.0000-0.7832 (   238 PWs)   bands (ev):

   -60.2819 -60.2817 -28.6449 -28.6447 -28.3074 -28.3072 -28.1462 -28.1460
   -12.6275 -12.6274 -12.6155 -12.6154   5.7212   5.7213   6.8281   6.8281
     7.1404   7.1405   8.3855   8.3856   8.7517   8.7517   9.9336   9.9336

          k = 0.0000 0.3333 0.0000 (   233 PWs)   bands (ev):

   -60.3733 -60.2187 -28.8794 -28.6238 -28.5199 -28.4039 -27.5114 -26.2978
   -13.4616 -12.9285 -12.3009 -12.1180   4.7714   5.7091   6.4291   7.5847
     7.8064   8.0147   8.0823   9.0506   9.6846   9.9817  10.1562  10.7220

          k = 0.0000 0.3333 0.3916 (   232 PWs)   bands (ev):

   -60.2707 -60.2052 -28.7747 -28.3822 -28.0997 -27.6064 -27.5251 -26.9348
   -13.0954 -12.5766 -12.5067 -12.3946   5.9698   6.5005   6.6738   7.0538
     7.2971   7.4575   7.8688   8.5095   9.0212  10.0432  10.1562  10.4622

          k = 0.0000 0.3333-0.7832 (   234 PWs)   bands (ev):

   -60.2385 -60.2382 -28.7260 -28.7258 -28.1646 -28.1644 -27.3649 -27.3647
   -12.9322 -12.9322 -12.0427 -12.0427   5.4079   5.4079   7.1743   7.1743
     7.4634   7.4634   8.8014   8.8015   9.3248   9.3248  10.1234  10.1234

          k = 0.3333 0.3333 0.0000 (   230 PWs)   bands (ev):

   -60.3998 -60.1710 -29.5077 -28.2322 -28.1246 -27.6608 -26.9472 -26.6697
   -13.4551 -13.2202 -12.2661 -11.9939   4.8725   5.9132   7.3080   7.6478
     7.6929   8.5634   8.7177   8.9978   9.4540  10.1066  10.2298  10.2326

          k = 0.3333 0.3333 0.3916 (   227 PWs)   bands (ev):

   -60.2684 -60.0982 -28.9748 -27.9028 -27.6560 -27.3650 -27.0285 -26.2892
   -12.9502 -12.6816 -12.2755 -12.1288   5.7264   6.4177   6.5290   6.8251
     8.2524   8.6274   8.9110   9.0623   9.5678   9.7146  10.2458  10.7883

          k = 0.3333 0.3333-0.7832 (   240 PWs)   bands (ev):

   -60.3034 -60.2923 -29.1453 -29.0120 -28.7063 -28.6471 -27.9142 -27.7421
   -13.0835 -12.8966 -12.2700 -12.0921   4.8078   5.3869   5.5234   6.1897
     8.0326   8.0843   8.6884   9.1541   9.2839   9.6433   9.8179   9.9991

     highest occupied level (ev):    11.5383

!    total energy              =    -349.37788709 Ry
     estimated scf accuracy    <       0.00000064 Ry

     The total energy is the sum of the following terms:
     one-electron contribution =     -91.29742372 Ry
     hartree contribution      =      62.21004409 Ry
     xc contribution           =     -58.77674959 Ry
     ewald contribution        =    -261.51375788 Ry

     convergence has been achieved in  12 iterations

     Writing all to output data dir ./tmp/TiO2.save/ :
     XML data file, charge density, pseudopotentials, collected wavefunctions

     init_run     :      0.49s CPU      0.52s WALL (       1 calls)
     electrons    :      1.22s CPU      1.26s WALL (       1 calls)

     Called by init_run:
     wfcinit      :      0.09s CPU      0.09s WALL (       1 calls)
     potinit      :      0.12s CPU      0.12s WALL (       1 calls)
     hinit0       :      0.26s CPU      0.26s WALL (       1 calls)

     Called by electrons:
     c_bands      :      0.67s CPU      0.70s WALL (      12 calls)
     sum_band     :      0.32s CPU      0.33s WALL (      12 calls)
     v_of_rho     :      0.01s CPU      0.01s WALL (      13 calls)
     newd         :      0.24s CPU      0.26s WALL (      13 calls)
     mix_rho      :      0.00s CPU      0.00s WALL (      12 calls)

     Called by c_bands:
     init_us_2    :      0.02s CPU      0.02s WALL (     225 calls)
     cegterg      :      0.63s CPU      0.65s WALL (     108 calls)

     Called by *egterg:
     cdiaghg      :      0.18s CPU      0.19s WALL (     460 calls)
     h_psi        :      0.44s CPU      0.45s WALL (     469 calls)
     s_psi        :      0.03s CPU      0.03s WALL (     469 calls)
     g_psi        :      0.00s CPU      0.00s WALL (     352 calls)

     Called by h_psi:
     h_psi:calbec :      0.03s CPU      0.03s WALL (     469 calls)
     vloc_psi     :      0.37s CPU      0.38s WALL (     469 calls)
                                        0.00s GPU  (     469 calls)
     add_vuspsi   :      0.03s CPU      0.03s WALL (     469 calls)

     General routines
     calbec       :      0.04s CPU      0.04s WALL (     577 calls)
     fft          :      0.12s CPU      0.12s WALL (      76 calls)
     ffts         :      0.10s CPU      0.10s WALL (      25 calls)
     fftw         :      0.36s CPU      0.37s WALL (   18308 calls)
     interpolate  :      0.10s CPU      0.10s WALL (      13 calls)

     Parallel routines

     PWSCF        :      1.84s CPU      1.94s WALL


   This run was terminated on:  19:31:41  17Sep2025            

=------------------------------------------------------------------------------=
   JOB DONE.
=------------------------------------------------------------------------------=
Note: The following floating-point exceptions are signalling: IEEE_INVALID_FLAG
