
     Program PWSCF v.7.5 starts on 17Sep2025 at 20:40:41 

     This program is part of the open-source Quantum ESPRESSO suite
     for quantum simulation of materials; please cite
         "P. Giannozzi et al., J. Phys.:Condens. Matter 21 395502 (2009);
         "P. Giannozzi et al., J. Phys.:Condens. Matter 29 465901 (2017);
         "P. Giannozzi et al., J. Chem. Phys. 152 154105 (2020);
          URL http://www.quantum-espresso.org", 
     in publications or presentations arising from this work. More details at
     http://www.quantum-espresso.org/quote

     Parallel version (MPI & OpenMP), running on      16 processor cores
     Number of MPI processes:                 1
     Threads/MPI process:                    16

     MPI processes distributed on     1 nodes
     4268 MiB available memory on the printing compute node when the environment starts

     Reading input from TiO2.refill.scf.in

     Current dimensions of program PWSCF are:
     Max number of different atomic species (ntypx) = 10
     Max number of k-points (npk) =  40000
     Max angular momentum in pseudopotentials (lmaxx) =  4

     IMPORTANT: XC functional enforced from input :
     Exchange-correlation= PZ
                           (   1   1   0   0   0   0   0)
     Any further DFT definition will be discarded
     Please, verify this is what you really want

     Message from routine setup:
     using ibrav=0 with symmetry is DISCOURAGED, use correct ibrav instead

     Subspace diagonalization in iterative solution of the eigenvalue problem:
     a serial algorithm will be used


     G-vector sticks info
     --------------------
     sticks:   dense  smooth     PW     G-vecs:    dense   smooth      PW
     Sum        1885     949    293                39459    13955    2449

     Using Slab Decomposition



     bravais-lattice index     =            0
     lattice parameter (alat)  =       8.5989  a.u.
     unit-cell volume          =     408.5873 (a.u.)^3
     number of atoms/cell      =            6
     number of atomic types    =            2
     number of electrons       =        48.00
     number of Kohn-Sham states=           24
     kinetic-energy cutoff     =      40.0000  Ry
     charge density cutoff     =     320.0000  Ry
     scf convergence threshold =      1.0E-06
     mixing beta               =       0.3000
     number of iterations used =            8  plain     mixing
     Exchange-correlation= PZ
                           (   1   1   0   0   0   0   0)

     celldm(1)=   8.598882  celldm(2)=   0.000000  celldm(3)=   0.000000
     celldm(4)=   0.000000  celldm(5)=   0.000000  celldm(6)=   0.000000

     crystal axes: (cart. coord. in units of alat)
               a(1) = (   1.000000   0.000000   0.000000 )  
               a(2) = (   0.000000   1.000000   0.000000 )  
               a(3) = (   0.000000   0.000000   0.642627 )  

     reciprocal axes: (cart. coord. in units 2 pi/alat)
               b(1) = (  1.000000  0.000000  0.000000 )  
               b(2) = (  0.000000  1.000000  0.000000 )  
               b(3) = (  0.000000  0.000000  1.556113 )  


     PseudoPot. # 1 for Ti read from file:
     /home/dean_gov/qe-pp/gbrv_lda/ti_lda_v1.4.uspp.F.UPF
     MD5 check sum: 0d9f225c038fe889ca2a701dcc8d72cb
     Pseudo is Ultrasoft + core correction, Zval = 12.0
     Generated by new atomic code, or converted to UPF format
     Using radial grid of  851 points,  6 beta functions with: 
                l(1) =   0
                l(2) =   0
                l(3) =   1
                l(4) =   1
                l(5) =   2
                l(6) =   2
     Q(r) pseudized with  6 coefficients,  rinner =    1.000   1.000   1.000
                                                       1.000   1.000

     PseudoPot. # 2 for O  read from file:
     /home/dean_gov/qe-pp/gbrv_lda/o_lda_v1.2.uspp.F.UPF
     MD5 check sum: 194b818514d2a7dbb603bb78519a4f40
     Pseudo is Ultrasoft + core correction, Zval =  6.0
     Generated by new atomic code, or converted to UPF format
     Using radial grid of  737 points,  5 beta functions with: 
                l(1) =   0
                l(2) =   0
                l(3) =   1
                l(4) =   1
                l(5) =   2
     Q(r) pseudized with  8 coefficients,  rinner =    0.900   0.900   0.900
                                                       0.900   0.900

     atomic species   valence    mass     pseudopotential
     Ti               12.00    47.86700     Ti( 1.00)
     O                 6.00    15.99900     O ( 1.00)

     16 Sym. Ops., with inversion, found ( 8 have fractional translation)



   Cartesian axes

     site n.     atom                  positions (alat units)
         1        Ti     tau(   1) = (   0.5000004   0.5000004   0.3213138  )
         2        Ti     tau(   2) = (   0.0000000   0.0000000   0.0000000  )
         3        O      tau(   3) = (   0.6960619   0.6960619  -0.0000000  )
         4        O      tau(   4) = (   0.1960615   0.8039394   0.3213138  )
         5        O      tau(   5) = (   0.3039390   0.3039390  -0.0000000  )
         6        O      tau(   6) = (   0.8039394   0.1960615   0.3213138  )

     number of k points=    50
                       cart. coord. in units 2pi/alat
        k(    1) = (   0.0000000   0.0000000   0.0000000), wk =   0.0069444
        k(    2) = (   0.0000000   0.0000000   0.1945141), wk =   0.0138889
        k(    3) = (   0.0000000   0.0000000   0.3890283), wk =   0.0138889
        k(    4) = (   0.0000000   0.0000000   0.5835424), wk =   0.0138889
        k(    5) = (   0.0000000   0.0000000  -0.7780565), wk =   0.0069444
        k(    6) = (   0.0000000   0.1666667   0.0000000), wk =   0.0277778
        k(    7) = (   0.0000000   0.1666667   0.1945141), wk =   0.0555556
        k(    8) = (   0.0000000   0.1666667   0.3890283), wk =   0.0555556
        k(    9) = (   0.0000000   0.1666667   0.5835424), wk =   0.0555556
        k(   10) = (   0.0000000   0.1666667  -0.7780565), wk =   0.0277778
        k(   11) = (   0.0000000   0.3333333   0.0000000), wk =   0.0277778
        k(   12) = (   0.0000000   0.3333333   0.1945141), wk =   0.0555556
        k(   13) = (   0.0000000   0.3333333   0.3890283), wk =   0.0555556
        k(   14) = (   0.0000000   0.3333333   0.5835424), wk =   0.0555556
        k(   15) = (   0.0000000   0.3333333  -0.7780565), wk =   0.0277778
        k(   16) = (   0.0000000  -0.5000000   0.0000000), wk =   0.0138889
        k(   17) = (   0.0000000  -0.5000000   0.1945141), wk =   0.0277778
        k(   18) = (   0.0000000  -0.5000000   0.3890283), wk =   0.0277778
        k(   19) = (   0.0000000  -0.5000000   0.5835424), wk =   0.0277778
        k(   20) = (   0.0000000  -0.5000000  -0.7780565), wk =   0.0138889
        k(   21) = (   0.1666667   0.1666667   0.0000000), wk =   0.0277778
        k(   22) = (   0.1666667   0.1666667   0.1945141), wk =   0.0555556
        k(   23) = (   0.1666667   0.1666667   0.3890283), wk =   0.0555556
        k(   24) = (   0.1666667   0.1666667   0.5835424), wk =   0.0555556
        k(   25) = (   0.1666667   0.1666667  -0.7780565), wk =   0.0277778
        k(   26) = (   0.1666667   0.3333333   0.0000000), wk =   0.0555556
        k(   27) = (   0.1666667   0.3333333   0.1945141), wk =   0.1111111
        k(   28) = (   0.1666667   0.3333333   0.3890283), wk =   0.1111111
        k(   29) = (   0.1666667   0.3333333   0.5835424), wk =   0.1111111
        k(   30) = (   0.1666667   0.3333333  -0.7780565), wk =   0.0555556
        k(   31) = (   0.1666667  -0.5000000   0.0000000), wk =   0.0277778
        k(   32) = (   0.1666667  -0.5000000   0.1945141), wk =   0.0555556
        k(   33) = (   0.1666667  -0.5000000   0.3890283), wk =   0.0555556
        k(   34) = (   0.1666667  -0.5000000   0.5835424), wk =   0.0555556
        k(   35) = (   0.1666667  -0.5000000  -0.7780565), wk =   0.0277778
        k(   36) = (   0.3333333   0.3333333   0.0000000), wk =   0.0277778
        k(   37) = (   0.3333333   0.3333333   0.1945141), wk =   0.0555556
        k(   38) = (   0.3333333   0.3333333   0.3890283), wk =   0.0555556
        k(   39) = (   0.3333333   0.3333333   0.5835424), wk =   0.0555556
        k(   40) = (   0.3333333   0.3333333  -0.7780565), wk =   0.0277778
        k(   41) = (   0.3333333  -0.5000000   0.0000000), wk =   0.0277778
        k(   42) = (   0.3333333  -0.5000000   0.1945141), wk =   0.0555556
        k(   43) = (   0.3333333  -0.5000000   0.3890283), wk =   0.0555556
        k(   44) = (   0.3333333  -0.5000000   0.5835424), wk =   0.0555556
        k(   45) = (   0.3333333  -0.5000000  -0.7780565), wk =   0.0277778
        k(   46) = (  -0.5000000  -0.5000000   0.0000000), wk =   0.0069444
        k(   47) = (  -0.5000000  -0.5000000   0.1945141), wk =   0.0138889
        k(   48) = (  -0.5000000  -0.5000000   0.3890283), wk =   0.0138889
        k(   49) = (  -0.5000000  -0.5000000   0.5835424), wk =   0.0138889
        k(   50) = (  -0.5000000  -0.5000000  -0.7780565), wk =   0.0069444

     Dense  grid:    39459 G-vectors     FFT dimensions: (  50,  50,  32)

     Smooth grid:    13955 G-vectors     FFT dimensions: (  36,  36,  24)

     Estimated max dynamical RAM per process >     175.13 MB

     Check: negative core charge=   -0.000013

     Initial potential from superposition of free atoms

     starting charge      45.9999, renormalised to      48.0000

     negative rho (up, down):  1.921E-03 0.000E+00
     Starting wfcs are   36 randomized atomic wfcs

     total cpu time spent up to now is       18.7 secs

     per-process dynamical memory:    68.3 Mb

     Self-consistent Calculation

     iteration #  1     ecut=    40.00 Ry     beta= 0.30
     Davidson diagonalization with overlap
     ethr =  1.00E-02,  avg # of iterations =  2.0

     negative rho (up, down):  2.089E-03 0.000E+00

     total cpu time spent up to now is       71.7 secs

     total energy              =    -368.15292235 Ry
     estimated scf accuracy    <       1.21222552 Ry

     iteration #  2     ecut=    40.00 Ry     beta= 0.30
     Davidson diagonalization with overlap
     ethr =  2.53E-03,  avg # of iterations =  3.9

     negative rho (up, down):  2.036E-03 0.000E+00

     total cpu time spent up to now is      147.1 secs

     total energy              =    -368.41678452 Ry
     estimated scf accuracy    <       0.05943044 Ry

     iteration #  3     ecut=    40.00 Ry     beta= 0.30
     Davidson diagonalization with overlap
     ethr =  1.24E-04,  avg # of iterations =  4.1

     negative rho (up, down):  1.864E-03 0.000E+00

     total cpu time spent up to now is      225.5 secs

     total energy              =    -368.40207156 Ry
     estimated scf accuracy    <       0.06040148 Ry

     iteration #  4     ecut=    40.00 Ry     beta= 0.30
     Davidson diagonalization with overlap
     ethr =  1.24E-04,  avg # of iterations =  5.0

     negative rho (up, down):  1.889E-03 0.000E+00

     total cpu time spent up to now is      315.8 secs

     total energy              =    -368.40383757 Ry
     estimated scf accuracy    <       0.13793527 Ry

     iteration #  5     ecut=    40.00 Ry     beta= 0.30
     Davidson diagonalization with overlap
     ethr =  1.24E-04,  avg # of iterations =  4.3

     negative rho (up, down):  1.886E-03 0.000E+00

     total cpu time spent up to now is      399.7 secs

     total energy              =    -368.42703846 Ry
     estimated scf accuracy    <       0.00075572 Ry

     iteration #  6     ecut=    40.00 Ry     beta= 0.30
     Davidson diagonalization with overlap
     ethr =  1.57E-06,  avg # of iterations =  6.4

     negative rho (up, down):  1.849E-03 0.000E+00

     total cpu time spent up to now is      512.5 secs

     total energy              =    -368.42321916 Ry
     estimated scf accuracy    <       0.02717061 Ry

     iteration #  7     ecut=    40.00 Ry     beta= 0.30
     Davidson diagonalization with overlap
     ethr =  1.57E-06,  avg # of iterations =  6.5

     negative rho (up, down):  1.847E-03 0.000E+00

     total cpu time spent up to now is      636.2 secs

     total energy              =    -368.42732037 Ry
     estimated scf accuracy    <       0.00002361 Ry

     iteration #  8     ecut=    40.00 Ry     beta= 0.30
     Davidson diagonalization with overlap
     ethr =  4.92E-08,  avg # of iterations =  4.1

     negative rho (up, down):  1.848E-03 0.000E+00

     total cpu time spent up to now is      714.5 secs

     total energy              =    -368.42728947 Ry
     estimated scf accuracy    <       0.00009564 Ry

     iteration #  9     ecut=    40.00 Ry     beta= 0.30
     Davidson diagonalization with overlap
     ethr =  4.92E-08,  avg # of iterations =  5.0

     negative rho (up, down):  1.848E-03 0.000E+00

     total cpu time spent up to now is      803.6 secs

     total energy              =    -368.42730696 Ry
     estimated scf accuracy    <       0.00000148 Ry

     iteration # 10     ecut=    40.00 Ry     beta= 0.30
     Davidson diagonalization with overlap
     ethr =  3.09E-09,  avg # of iterations =  3.5

     negative rho (up, down):  1.848E-03 0.000E+00

     total cpu time spent up to now is      878.0 secs

     End of self-consistent calculation

          k = 0.0000 0.0000 0.0000 (  1787 PWs)   bands (ev):

   -46.9232 -46.9019 -23.6028 -23.6027 -23.4096 -23.4095 -23.3668 -23.3241
    -8.8322  -7.5495  -6.7073  -6.7073   3.2463   3.6633   3.9693   5.2927
     5.2928   6.5798   6.5798   7.2121   8.5360   8.7648   8.7648   9.2386

          k = 0.0000 0.0000 0.1945 (  1755 PWs)   bands (ev):

   -46.9150 -46.8953 -23.5826 -23.5825 -23.4455 -23.4072 -23.4057 -23.4057
    -8.6519  -7.4445  -6.7952  -6.7951   3.4856   3.8466   4.1575   5.1012
     5.1012   6.7237   6.9143   6.9143   7.8745   8.4392   8.4392   9.1500

          k = 0.0000 0.0000 0.3890 (  1747 PWs)   bands (ev):

   -46.8949 -46.8797 -23.6307 -23.6035 -23.5314 -23.5314 -23.3983 -23.3983
    -8.1861  -7.2161  -7.0063  -7.0062   4.0932   4.2897   4.7083   4.9567
     4.9567   5.7834   6.6912   7.4054   7.4054   7.6834   7.6835   8.7170

          k = 0.0000 0.0000 0.5835 (  1747 PWs)   bands (ev):

   -46.8734 -46.8652 -23.8087 -23.7950 -23.4731 -23.4730 -23.3976 -23.3975
    -7.6249  -7.2157  -7.2156  -7.0708   4.5846   4.6297   5.0999   5.1000
     5.2663   5.5754   5.8097   6.8515   6.8515   7.6915   7.6915   7.8060

          k = 0.0000 0.0000-0.7781 (  1756 PWs)   bands (ev):

   -46.8620 -46.8617 -23.8769 -23.8767 -23.4404 -23.4401 -23.4058 -23.4056
    -7.3019  -7.3018  -7.1992  -7.1992   4.5652   4.5653   5.3043   5.3044
     5.5155   5.5155   6.4006   6.4006   6.6651   6.6651   7.7689   7.7690

          k = 0.0000 0.1667 0.0000 (  1761 PWs)   bands (ev):

   -46.9218 -46.9033 -23.5920 -23.5908 -23.4230 -23.4218 -23.3639 -23.3269
    -8.7236  -7.5498  -6.8222  -6.7527   3.4369   3.7837   4.1666   5.3054
     5.3144   6.3939   6.5328   7.2207   8.2478   8.3448   8.5315   9.1325

          k = 0.0000 0.1667 0.1945 (  1760 PWs)   bands (ev):

   -46.9137 -46.8966 -23.5739 -23.5715 -23.4440 -23.4302 -23.4145 -23.3975
    -8.5503  -7.4378  -6.9062  -6.8348   3.6582   3.9712   4.3029   5.0883
     5.1981   6.5537   6.6956   7.0028   7.5861   8.2697   8.2968   9.0288

          k = 0.0000 0.1667 0.3890 (  1748 PWs)   bands (ev):

   -46.8938 -46.8807 -23.6353 -23.6102 -23.5212 -23.5176 -23.4064 -23.4044
    -8.1117  -7.2096  -7.0871  -7.0246   4.1854   4.4209   4.6054   4.9154
     5.3009   5.7595   6.3017   7.2822   7.3220   7.7020   7.7629   8.7163

          k = 0.0000 0.1667 0.5835 (  1738 PWs)   bands (ev):

   -46.8729 -46.8657 -23.8114 -23.7994 -23.4671 -23.4654 -23.4018 -23.4003
    -7.6441  -7.3418  -7.1565  -6.9773   4.5518   4.6367   4.6708   5.0413
     5.5539   5.6051   6.0610   6.8098   6.9971   7.5574   7.6432   7.9983

          k = 0.0000 0.1667-0.7781 (  1734 PWs)   bands (ev):

   -46.8619 -46.8617 -23.8802 -23.8799 -23.4374 -23.4371 -23.4056 -23.4054
    -7.4660  -7.4659  -7.0257  -7.0256   4.4116   4.4116   5.0286   5.0286
     5.7879   5.7879   6.4620   6.4621   7.0045   7.0045   7.6497   7.6497

          k = 0.0000 0.3333 0.0000 (  1743 PWs)   bands (ev):

   -46.9178 -46.9072 -23.5627 -23.5595 -23.4572 -23.4539 -23.3561 -23.3347
    -8.4219  -7.6513  -7.0082  -6.8680   3.8359   4.0496   4.8110   5.3361
     5.3527   6.0342   6.3026   7.1366   7.3007   7.9320   8.2998   8.8138

          k = 0.0000 0.3333 0.1945 (  1755 PWs)   bands (ev):

   -46.9101 -46.9002 -23.5492 -23.5418 -23.4660 -23.4570 -23.4215 -23.4009
    -8.2671  -7.5221  -7.0859  -6.9368   4.0373   4.2530   4.7161   5.0577
     5.4422   6.2558   6.4304   6.8500   6.9372   7.6955   8.2954   8.7936

          k = 0.0000 0.3333 0.3890 (  1747 PWs)   bands (ev):

   -46.8910 -46.8834 -23.6401 -23.6241 -23.4962 -23.4876 -23.4280 -23.4219
    -7.9056  -7.3234  -7.1693  -7.0712   4.4377   4.6282   4.7502   4.8182
     5.6884   5.7052   5.8956   6.8524   6.9797   7.6678   8.0205   8.5820

          k = 0.0000 0.3333 0.5835 (  1742 PWs)   bands (ev):

   -46.8713 -46.8672 -23.8159 -23.8087 -23.4519 -23.4472 -23.4135 -23.4092
    -7.6564  -7.5020  -7.0360  -6.9106   4.2570   4.4418   4.7394   5.0590
     5.4670   5.9173   6.2719   6.9382   7.0595   7.3778   7.7000   8.2842

          k = 0.0000 0.3333-0.7781 (  1740 PWs)   bands (ev):

   -46.8619 -46.8617 -23.8865 -23.8863 -23.4316 -23.4314 -23.4050 -23.4048
    -7.6116  -7.6116  -6.8611  -6.8610   4.0618   4.0619   5.0376   5.0376
     5.8654   5.8654   6.6249   6.6249   7.3237   7.3238   7.7503   7.7503

          k = 0.0000-0.5000 0.0000 (  1730 PWs)   bands (ev):

   -46.9126 -46.9124 -23.5339 -23.5336 -23.4844 -23.4842 -23.3455 -23.3452
    -8.0062  -8.0061  -6.9932  -6.9931   4.1301   4.1302   5.3616   5.3617
     5.7864   5.7865   6.0714   6.0715   7.5394   7.5394   8.4523   8.4525

          k = 0.0000-0.5000 0.1945 (  1750 PWs)   bands (ev):

   -46.9052 -46.9050 -23.5181 -23.5179 -23.4902 -23.4900 -23.4114 -23.4113
    -7.8722  -7.8720  -7.0541  -7.0540   4.3329   4.3330   5.0441   5.0442
     5.8084   5.8085   6.4267   6.4268   7.0368   7.0369   8.5320   8.5321

          k = 0.0000-0.5000 0.3890 (  1754 PWs)   bands (ev):

   -46.8873 -46.8871 -23.6362 -23.6360 -23.4691 -23.4689 -23.4446 -23.4444
    -7.6176  -7.6175  -7.1263  -7.1262   4.6756   4.6757   4.8539   4.8540
     5.5052   5.5053   6.3738   6.3739   7.1862   7.1862   8.3456   8.3457

          k = 0.0000-0.5000 0.5835 (  1752 PWs)   bands (ev):

   -46.8694 -46.8691 -23.8157 -23.8155 -23.4351 -23.4349 -23.4229 -23.4227
    -7.6130  -7.6129  -6.9360  -6.9360   4.2310   4.2310   4.9035   4.9035
     5.8108   5.8109   6.4620   6.4622   7.3379   7.3379   8.1139   8.1140

          k = 0.0000-0.5000-0.7781 (  1744 PWs)   bands (ev):

   -46.8619 -46.8617 -23.8896 -23.8894 -23.4289 -23.4287 -23.4047 -23.4045
    -7.6645  -7.6644  -6.7987  -6.7986   3.9106   3.9106   5.0820   5.0820
     5.8745   5.8745   6.7906   6.7906   7.0915   7.0915   8.1337   8.1337

          k = 0.1667 0.1667 0.0000 (  1758 PWs)   bands (ev):

   -46.9205 -46.9045 -23.6069 -23.5576 -23.4582 -23.4070 -23.3614 -23.3294
    -8.6323  -7.5656  -6.9357  -6.7476   3.4283   4.0214   4.3371   5.2732
     5.3559   6.1692   6.6248   7.2441   7.8860   8.2460   8.3998   9.0513

          k = 0.1667 0.1667 0.1945 (  1747 PWs)   bands (ev):

   -46.9125 -46.8977 -23.5864 -23.5423 -23.4639 -23.4346 -23.4034 -23.4029
    -8.4640  -7.4453  -7.0131  -6.8333   3.6354   4.2159   4.4072   5.1377
     5.2059   6.3309   6.8221   6.9241   7.3620   8.2026   8.2628   8.8815

          k = 0.1667 0.1667 0.3890 (  1751 PWs)   bands (ev):

   -46.8929 -46.8816 -23.6365 -23.6127 -23.5346 -23.4894 -23.4267 -23.3966
    -8.0450  -7.2111  -7.1486  -7.0395   4.1443   4.5090   4.6178   4.9935
     5.4680   5.6435   6.2741   6.9768   7.3858   7.6083   7.9358   8.6941

          k = 0.1667 0.1667 0.5835 (  1738 PWs)   bands (ev):

   -46.8724 -46.8662 -23.8135 -23.8005 -23.4750 -23.4480 -23.4122 -23.3969
    -7.6577  -7.2861  -7.2446  -6.9258   4.4194   4.6738   4.6888   4.8340
     5.3691   6.0289   6.1745   6.8175   6.9099   7.5629   7.6817   8.1429

          k = 0.1667 0.1667-0.7781 (  1730 PWs)   bands (ev):

   -46.8619 -46.8617 -23.8852 -23.8779 -23.4409 -23.4311 -23.4063 -23.4047
    -7.6117  -7.3292  -7.1650  -6.8642   4.1228   4.7192   4.8496   4.9843
     5.1937   6.3951   6.5533   6.5818   6.9502   7.3918   7.4112   7.7778

          k = 0.1667 0.3333 0.0000 (  1745 PWs)   bands (ev):

   -46.9171 -46.9078 -23.5983 -23.5343 -23.4838 -23.4178 -23.3546 -23.3361
    -8.3795  -7.7068  -7.0289  -6.8308   3.6001   4.1921   4.8967   5.2790
     5.3623   6.0599   6.4508   7.2803   7.3664   7.9719   8.0802   8.7108

          k = 0.1667 0.3333 0.1945 (  1748 PWs)   bands (ev):

   -46.9094 -46.9008 -23.5792 -23.5177 -23.4912 -23.4326 -23.4152 -23.4016
    -8.2250  -7.5770  -7.0982  -6.9084   3.7975   4.3999   4.6830   5.0572
     5.4877   6.3136   6.5548   6.7617   7.2584   7.7482   8.1413   8.6011

          k = 0.1667 0.3333 0.3890 (  1751 PWs)   bands (ev):

   -46.8905 -46.8839 -23.6370 -23.6221 -23.5245 -23.4683 -23.4448 -23.4023
    -7.8621  -7.3573  -7.1669  -7.0801   4.2595   4.4872   4.7337   4.9274
     5.4988   5.9892   6.1068   6.8091   7.2267   7.5628   7.9982   8.5191

          k = 0.1667 0.3333 0.5835 (  1739 PWs)   bands (ev):

   -46.8710 -46.8674 -23.8152 -23.8055 -23.4695 -23.4347 -23.4231 -23.3998
    -7.6459  -7.4313  -7.1170  -6.9088   4.2230   4.3954   4.7323   5.0402
     5.2171   6.1298   6.3998   6.7977   7.0104   7.5407   7.8305   8.3629

          k = 0.1667 0.3333-0.7781 (  1738 PWs)   bands (ev):

   -46.8619 -46.8617 -23.8882 -23.8810 -23.4383 -23.4287 -23.4063 -23.4047
    -7.6669  -7.4777  -7.0034  -6.7959   3.9266   4.2628   4.9785   5.0786
     5.2022   6.2155   6.6004   6.6469   7.1742   7.6788   7.7699   7.9905

          k = 0.1667-0.5000 0.0000 (  1748 PWs)   bands (ev):

   -46.9126 -46.9123 -23.5681 -23.5680 -23.4502 -23.4501 -23.3455 -23.3452
    -8.0302  -8.0301  -6.9590  -6.9589   3.9415   3.9416   5.3219   5.3220
     5.6810   5.6811   6.5989   6.5989   7.6318   7.6318   8.2528   8.2530

          k = 0.1667-0.5000 0.1945 (  1750 PWs)   bands (ev):

   -46.9052 -46.9050 -23.5523 -23.5522 -23.4578 -23.4577 -23.4097 -23.4096
    -7.8927  -7.8926  -7.0247  -7.0246   4.1403   4.1404   4.9265   4.9266
     5.9746   5.9747   6.7795   6.7796   7.1127   7.1128   8.3187   8.3188

          k = 0.1667-0.5000 0.3890 (  1746 PWs)   bands (ev):

   -46.8873 -46.8871 -23.6324 -23.6322 -23.4967 -23.4966 -23.4212 -23.4212
    -7.6103  -7.6102  -7.1286  -7.1285   4.5394   4.5394   4.6391   4.6392
     5.7488   5.7489   6.6155   6.6156   7.2333   7.2333   8.2335   8.2336

          k = 0.1667-0.5000 0.5835 (  1748 PWs)   bands (ev):

   -46.8693 -46.8691 -23.8122 -23.8120 -23.4528 -23.4527 -23.4095 -23.4094
    -7.5687  -7.5687  -6.9801  -6.9800   4.2046   4.2046   4.8633   4.8633
     5.6733   5.6734   6.6343   6.6344   7.3446   7.3447   8.2144   8.2145

          k = 0.1667-0.5000-0.7781 (  1756 PWs)   bands (ev):

   -46.8619 -46.8616 -23.8863 -23.8860 -23.4324 -23.4322 -23.4056 -23.4054
    -7.6173  -7.6172  -6.8480  -6.8480   3.9501   3.9502   5.0206   5.0206
     5.7235   5.7235   6.6131   6.6132   7.4253   7.4254   8.2200   8.2200

          k = 0.3333 0.3333 0.0000 (  1758 PWs)   bands (ev):

   -46.9151 -46.9098 -23.6151 -23.5716 -23.4475 -23.4020 -23.3507 -23.3400
    -8.2575  -7.8680  -6.9886  -6.8254   3.4714   3.9660   5.2344   5.2946
     5.3112   6.2718   6.7665   7.3274   7.5650   7.6539   7.9764   8.5078

          k = 0.3333 0.3333 0.1945 (  1745 PWs)   bands (ev):

   -46.9075 -46.9026 -23.5942 -23.5554 -23.4575 -23.4239 -23.4097 -23.3987
    -8.1058  -7.7339  -7.0553  -6.9069   3.6674   4.1658   4.7125   4.9454
     5.8341   6.6503   6.8115   6.9653   7.2891   7.7758   7.8299   8.2366

          k = 0.3333 0.3333 0.3890 (  1740 PWs)   bands (ev):

   -46.8891 -46.8853 -23.6306 -23.6188 -23.5409 -23.4985 -23.4195 -23.3932
    -7.7463  -7.4543  -7.1558  -7.1040   4.1454   4.3889   4.5607   4.6189
     5.8118   6.3327   6.3901   7.0214   7.3402   7.5095   7.8426   8.3047

          k = 0.3333 0.3333 0.5835 (  1737 PWs)   bands (ev):

   -46.8702 -46.8682 -23.8108 -23.8023 -23.4789 -23.4541 -23.4087 -23.3957
    -7.5799  -7.3011  -7.2510  -6.9668   4.1553   4.3445   4.5900   4.8557
     5.3305   5.9693   6.6569   6.7062   7.1984   7.6748   8.0640   8.4622

          k = 0.3333 0.3333-0.7781 (  1724 PWs)   bands (ev):

   -46.8618 -46.8616 -23.8847 -23.8773 -23.4424 -23.4325 -23.4073 -23.4058
    -7.6228  -7.3827  -7.0969  -6.8384   3.9104   4.3920   4.6551   4.8905
     5.2653   6.0545   6.4156   6.5667   7.5361   7.8140   8.1119   8.3471

          k = 0.3333-0.5000 0.0000 (  1764 PWs)   bands (ev):

   -46.9125 -46.9123 -23.6053 -23.6052 -23.4133 -23.4133 -23.3454 -23.3452
    -8.0743  -8.0742  -6.8940  -6.8940   3.6173   3.6174   5.2490   5.2491
     5.9319   5.9320   7.0618   7.0618   7.8184   7.8184   8.0026   8.0026

          k = 0.3333-0.5000 0.1945 (  1744 PWs)   bands (ev):

   -46.9051 -46.9049 -23.5856 -23.5856 -23.4320 -23.4318 -23.4026 -23.4026
    -7.9304  -7.9303  -6.9691  -6.9691   3.8122   3.8123   4.8137   4.8138
     6.3726   6.3727   7.2089   7.2090   7.3456   7.3457   7.8993   7.8994

          k = 0.3333-0.5000 0.3890 (  1744 PWs)   bands (ev):

   -46.8873 -46.8870 -23.6230 -23.6228 -23.5291 -23.5291 -23.3993 -23.3993
    -7.5956  -7.5955  -7.1332  -7.1331   4.2701   4.2701   4.4251   4.4251
     6.1561   6.1562   6.9580   6.9581   7.3787   7.3787   7.9733   7.9734

          k = 0.3333-0.5000 0.5835 (  1730 PWs)   bands (ev):

   -46.8693 -46.8691 -23.8048 -23.8046 -23.4727 -23.4726 -23.3986 -23.3986
    -7.4498  -7.4498  -7.0986  -7.0986   4.1968   4.1968   4.6626   4.6627
     5.6415   5.6416   6.7021   6.7022   7.5367   7.5368   8.3427   8.3428

          k = 0.3333-0.5000-0.7781 (  1732 PWs)   bands (ev):

   -46.8618 -46.8616 -23.8793 -23.8791 -23.4396 -23.4394 -23.4072 -23.4069
    -7.4979  -7.4978  -6.9718  -6.9717   4.0803   4.0803   4.7593   4.7593
     5.5933   5.5934   6.4835   6.4835   7.7483   7.7483   8.4349   8.4349

          k =-0.5000-0.5000 0.0000 (  1728 PWs)   bands (ev):

   -46.9125 -46.9123 -23.6193 -23.6192 -23.3995 -23.3994 -23.3454 -23.3451
    -8.0948  -8.0947  -6.8629  -6.8629   3.4765   3.4766   5.2152   5.2153
     6.2340   6.2340   6.8924   6.8925   7.9140   7.9140   8.1297   8.1297

          k =-0.5000-0.5000 0.1945 (  1756 PWs)   bands (ev):

   -46.9051 -46.9049 -23.5981 -23.5981 -23.4261 -23.4258 -23.3964 -23.3964
    -7.9478  -7.9477  -6.9426  -6.9426   3.6718   3.6718   4.7754   4.7754
     6.8461   6.8462   7.0069   7.0069   7.3687   7.3687   7.9195   7.9195

          k =-0.5000-0.5000 0.3890 (  1744 PWs)   bands (ev):

   -46.8872 -46.8870 -23.6165 -23.6162 -23.5440 -23.5440 -23.3915 -23.3915
    -7.5883  -7.5883  -7.1354  -7.1354   4.1453   4.1454   4.3596   4.3596
     6.3506   6.3507   7.2171   7.2171   7.3126   7.3127   7.8596   7.8596

          k =-0.5000-0.5000 0.5835 (  1744 PWs)   bands (ev):

   -46.8693 -46.8691 -23.8010 -23.8007 -23.4809 -23.4809 -23.3950 -23.3950
    -7.3288  -7.3287  -7.2195  -7.2194   4.2341   4.2342   4.5090   4.5090
     5.6698   5.6698   6.6871   6.6871   7.6770   7.6770   8.3782   8.3782

          k =-0.5000-0.5000-0.7781 (  1736 PWs)   bands (ev):

   -46.8618 -46.8616 -23.8758 -23.8755 -23.4433 -23.4431 -23.4079 -23.4077
    -7.4089  -7.4088  -7.0629  -7.0629   4.2408   4.2409   4.5043   4.5043
     5.5890   5.5891   6.4301   6.4301   7.8539   7.8539   8.5585   8.5585

     highest occupied level (ev):     9.2386

!    total energy              =    -368.42730704 Ry
     estimated scf accuracy    <       0.00000027 Ry

     The total energy is the sum of the following terms:
     one-electron contribution =    -121.25322458 Ry
     hartree contribution      =      84.43137494 Ry
     xc contribution           =     -64.52905277 Ry
     ewald contribution        =    -267.07640463 Ry

     convergence has been achieved in  10 iterations

     Writing all to output data dir ./tmp/TiO2.save/ :
     XML data file, charge density, pseudopotentials, collected wavefunctions

     init_run     :    277.05s CPU     18.58s WALL (       1 calls)
     electrons    :  13663.65s CPU    859.32s WALL (       1 calls)

     Called by init_run:
     wfcinit      :    268.38s CPU     16.96s WALL (       1 calls)
     potinit      :      2.58s CPU      0.41s WALL (       1 calls)
     hinit0       :      3.69s CPU      0.85s WALL (       1 calls)

     Called by electrons:
     c_bands      :  11873.67s CPU    745.08s WALL (      10 calls)
     sum_band     :   1753.07s CPU    110.65s WALL (      10 calls)
     v_of_rho     :      1.46s CPU      0.11s WALL (      11 calls)
     newd         :     31.70s CPU      3.42s WALL (      11 calls)
     mix_rho      :      5.63s CPU      0.36s WALL (      10 calls)

     Called by c_bands:
     init_us_2    :     11.16s CPU      1.05s WALL (    1050 calls)
     cegterg      :  11832.68s CPU    742.48s WALL (     500 calls)

     Called by *egterg:
     cdiaghg      :    249.18s CPU     15.73s WALL (    2741 calls)
     h_psi        :   9487.98s CPU    596.58s WALL (    2791 calls)
     s_psi        :    437.23s CPU     27.99s WALL (    2791 calls)
     g_psi        :      1.77s CPU      0.21s WALL (    2241 calls)

     Called by h_psi:
     h_psi:calbec :    446.94s CPU     24.25s WALL (    2791 calls)
     vloc_psi     :   8095.58s CPU    513.22s WALL (    2791 calls)
                                        0.00s GPU  (    2791 calls)
     add_vuspsi   :    307.80s CPU     19.92s WALL (    2791 calls)

     General routines
     calbec       :    528.90s CPU     28.65s WALL (    3291 calls)
     fft          :     12.34s CPU      0.94s WALL (      64 calls)
     ffts         :      4.37s CPU      0.48s WALL (      21 calls)
     fftw         :   8921.85s CPU    566.66s WALL (   97072 calls)
     interpolate  :      2.40s CPU      0.37s WALL (      11 calls)

     Parallel routines

     PWSCF        :      3h52m CPU  14m38.28s WALL


   This run was terminated on:  20:55:19  17Sep2025            

=------------------------------------------------------------------------------=
   JOB DONE.
=------------------------------------------------------------------------------=
Note: The following floating-point exceptions are signalling: IEEE_INVALID_FLAG
