
     Program PWSCF v.7.5 starts on 17Sep2025 at 19:27:55 

     This program is part of the open-source Quantum ESPRESSO suite
     for quantum simulation of materials; please cite
         "P. Giannozzi et al., J. Phys.:Condens. Matter 21 395502 (2009);
         "P. Giannozzi et al., J. Phys.:Condens. Matter 29 465901 (2017);
         "P. Giannozzi et al., J. Chem. Phys. 152 154105 (2020);
          URL http://www.quantum-espresso.org", 
     in publications or presentations arising from this work. More details at
     http://www.quantum-espresso.org/quote

     Parallel version (MPI & OpenMP), running on       1 processor cores
     Number of MPI processes:                 1
     Threads/MPI process:                     1

     MPI processes distributed on     1 nodes
     4269 MiB available memory on the printing compute node when the environment starts

     Reading input from TiO2.scf.E5.in

     Current dimensions of program PWSCF are:
     Max number of different atomic species (ntypx) = 10
     Max number of k-points (npk) =  40000
     Max angular momentum in pseudopotentials (lmaxx) =  4

     IMPORTANT: XC functional enforced from input :
     Exchange-correlation= PZ
                           (   1   1   0   0   0   0   0)
     Any further DFT definition will be discarded
     Please, verify this is what you really want


     Subspace diagonalization in iterative solution of the eigenvalue problem:
     a serial algorithm will be used


     G-vector sticks info
     --------------------
     sticks:   dense  smooth     PW     G-vecs:    dense   smooth      PW
     Sum         241     121     49                 1859      655     181

     Using Slab Decomposition



     bravais-lattice index     =            6
     lattice parameter (alat)  =       8.7906  a.u.
     unit-cell volume          =     433.6888 (a.u.)^3
     number of atoms/cell      =            6
     number of atomic types    =            2
     number of electrons       =        48.00
     number of Kohn-Sham states=           24
     kinetic-energy cutoff     =       5.0000  Ry
     charge density cutoff     =      40.0000  Ry
     scf convergence threshold =      1.0E-06
     mixing beta               =       0.3000
     number of iterations used =            8  plain     mixing
     Exchange-correlation= PZ
                           (   1   1   0   0   0   0   0)

     celldm(1)=   8.790590  celldm(2)=   0.000000  celldm(3)=   0.638446
     celldm(4)=   0.000000  celldm(5)=   0.000000  celldm(6)=   0.000000

     crystal axes: (cart. coord. in units of alat)
               a(1) = (   1.000000   0.000000   0.000000 )  
               a(2) = (   0.000000   1.000000   0.000000 )  
               a(3) = (   0.000000   0.000000   0.638446 )  

     reciprocal axes: (cart. coord. in units 2 pi/alat)
               b(1) = (  1.000000  0.000000  0.000000 )  
               b(2) = (  0.000000  1.000000  0.000000 )  
               b(3) = (  0.000000  0.000000  1.566303 )  


     PseudoPot. # 1 for Ti read from file:
     /home/dean_gov/qe-pp/gbrv_lda/ti_lda_v1.4.uspp.F.UPF
     MD5 check sum: 0d9f225c038fe889ca2a701dcc8d72cb
     Pseudo is Ultrasoft + core correction, Zval = 12.0
     Generated by new atomic code, or converted to UPF format
     Using radial grid of  851 points,  6 beta functions with: 
                l(1) =   0
                l(2) =   0
                l(3) =   1
                l(4) =   1
                l(5) =   2
                l(6) =   2
     Q(r) pseudized with  6 coefficients,  rinner =    1.000   1.000   1.000
                                                       1.000   1.000

     PseudoPot. # 2 for O  read from file:
     /home/dean_gov/qe-pp/gbrv_lda/o_lda_v1.2.uspp.F.UPF
     MD5 check sum: 194b818514d2a7dbb603bb78519a4f40
     Pseudo is Ultrasoft + core correction, Zval =  6.0
     Generated by new atomic code, or converted to UPF format
     Using radial grid of  737 points,  5 beta functions with: 
                l(1) =   0
                l(2) =   0
                l(3) =   1
                l(4) =   1
                l(5) =   2
     Q(r) pseudized with  8 coefficients,  rinner =    0.900   0.900   0.900
                                                       0.900   0.900

     atomic species   valence    mass     pseudopotential
     Ti               12.00    47.86700     Ti( 1.00)
     O                 6.00    15.99900     O ( 1.00)

     16 Sym. Ops., with inversion, found ( 8 have fractional translation)



   Cartesian axes

     site n.     atom                  positions (alat units)
         1        Ti     tau(   1) = (   0.5000004   0.5000004   0.3192234  )
         2        Ti     tau(   2) = (   0.0000000   0.0000000   0.0000000  )
         3        O      tau(   3) = (   0.6950896   0.6950896   0.0000000  )
         4        O      tau(   4) = (   0.1950892   0.8049117   0.3192234  )
         5        O      tau(   5) = (   0.3049112   0.3049112   0.0000000  )
         6        O      tau(   6) = (   0.8049117   0.1950892   0.3192234  )

     number of k points=     9
                       cart. coord. in units 2pi/alat
        k(    1) = (   0.0000000   0.0000000   0.0000000), wk =   0.0555556
        k(    2) = (   0.0000000   0.0000000   0.3915758), wk =   0.1111111
        k(    3) = (   0.0000000   0.0000000  -0.7831517), wk =   0.0555556
        k(    4) = (   0.0000000   0.3333333   0.0000000), wk =   0.2222222
        k(    5) = (   0.0000000   0.3333333   0.3915758), wk =   0.4444444
        k(    6) = (   0.0000000   0.3333333  -0.7831517), wk =   0.2222222
        k(    7) = (   0.3333333   0.3333333   0.0000000), wk =   0.2222222
        k(    8) = (   0.3333333   0.3333333   0.3915758), wk =   0.4444444
        k(    9) = (   0.3333333   0.3333333  -0.7831517), wk =   0.2222222

     Dense  grid:     1859 G-vectors     FFT dimensions: (  18,  18,  12)

     Smooth grid:      655 G-vectors     FFT dimensions: (  16,  16,   8)

     Estimated max dynamical RAM per process >       7.91 MB

     Check: negative core charge=   -0.007509

     Initial potential from superposition of free atoms

     starting charge      45.9999, renormalised to      48.0000

     negative rho (up, down):  1.028E-01 0.000E+00
     Starting wfcs are   36 randomized atomic wfcs

     total cpu time spent up to now is        0.5 secs

     per-process dynamical memory:    12.4 Mb

     Self-consistent Calculation

     iteration #  1     ecut=     5.00 Ry     beta= 0.30
     Davidson diagonalization with overlap
     ethr =  1.00E-02,  avg # of iterations =  2.7

     negative rho (up, down):  1.800E-02 0.000E+00

     total cpu time spent up to now is        0.5 secs

     total energy              =    -314.51140618 Ry
     estimated scf accuracy    <      33.70018904 Ry

     iteration #  2     ecut=     5.00 Ry     beta= 0.30
     Davidson diagonalization with overlap
     ethr =  1.00E-02,  avg # of iterations =  2.0

     negative rho (up, down):  5.799E-02 0.000E+00

     total cpu time spent up to now is        0.6 secs

     total energy              =    -303.08887760 Ry
     estimated scf accuracy    <      14.74791922 Ry

     iteration #  3     ecut=     5.00 Ry     beta= 0.30
     Davidson diagonalization with overlap
     ethr =  1.00E-02,  avg # of iterations =  2.1

     negative rho (up, down):  5.597E-02 0.000E+00

     total cpu time spent up to now is        0.6 secs

     total energy              =    -303.99840372 Ry
     estimated scf accuracy    <       0.22655670 Ry

     iteration #  4     ecut=     5.00 Ry     beta= 0.30
     Davidson diagonalization with overlap
     ethr =  4.72E-04,  avg # of iterations =  2.0

     negative rho (up, down):  4.244E-02 0.000E+00

     total cpu time spent up to now is        0.7 secs

     total energy              =    -304.00225775 Ry
     estimated scf accuracy    <       0.04148888 Ry

     iteration #  5     ecut=     5.00 Ry     beta= 0.30
     Davidson diagonalization with overlap
     ethr =  8.64E-05,  avg # of iterations =  2.7

     negative rho (up, down):  2.767E-02 0.000E+00

     total cpu time spent up to now is        0.7 secs

     total energy              =    -304.01161877 Ry
     estimated scf accuracy    <       0.00129453 Ry

     iteration #  6     ecut=     5.00 Ry     beta= 0.30
     Davidson diagonalization with overlap
     ethr =  2.70E-06,  avg # of iterations =  2.9

     negative rho (up, down):  1.894E-02 0.000E+00

     total cpu time spent up to now is        0.7 secs

     total energy              =    -304.01321866 Ry
     estimated scf accuracy    <       0.00026524 Ry

     iteration #  7     ecut=     5.00 Ry     beta= 0.30
     Davidson diagonalization with overlap
     ethr =  5.53E-07,  avg # of iterations =  2.3

     negative rho (up, down):  1.302E-02 0.000E+00

     total cpu time spent up to now is        0.8 secs

     total energy              =    -304.01417221 Ry
     estimated scf accuracy    <       0.00001214 Ry

     iteration #  8     ecut=     5.00 Ry     beta= 0.30
     Davidson diagonalization with overlap
     ethr =  2.53E-08,  avg # of iterations =  3.9

     negative rho (up, down):  8.924E-03 0.000E+00

     total cpu time spent up to now is        0.8 secs

     total energy              =    -304.01457752 Ry
     estimated scf accuracy    <       0.00000387 Ry

     iteration #  9     ecut=     5.00 Ry     beta= 0.30
     Davidson diagonalization with overlap
     ethr =  8.06E-09,  avg # of iterations =  2.2

     total cpu time spent up to now is        0.9 secs

     End of self-consistent calculation

          k = 0.0000 0.0000 0.0000 (    71 PWs)   bands (ev):

   -70.1723 -69.6940 -15.1118 -14.4752 -14.3944 -14.3944 -12.2183 -12.2181
   -11.5797 -11.5796 -10.7358  -8.0952   6.2118  10.3904  10.6502  11.7478
    11.7479  14.0476  14.0477  17.8698  18.4858  18.4859  19.5401  19.7113

          k = 0.0000 0.0000 0.3916 (    84 PWs)   bands (ev):

   -73.9161 -72.6782 -19.3234 -18.3230 -16.1295 -16.1295 -14.8252 -14.4324
   -13.7261 -13.7261 -12.6734 -12.6734   6.1787   9.6804   9.6805  10.0906
    10.4324  11.4699  12.9396  15.5304  15.5304  15.7692  15.7693  18.2354

          k = 0.0000 0.0000-0.7832 (    84 PWs)   bands (ev):

   -73.5179 -73.5177 -18.8070 -18.8068 -14.9429 -14.9427 -14.7257 -14.7255
   -13.7871 -13.7870 -13.7215 -13.7215   8.3824   8.3825   9.9449   9.9450
    11.1497  11.1498  11.3058  11.3059  15.0176  15.0177  16.3769  16.3769

          k = 0.0000 0.3333 0.0000 (    80 PWs)   bands (ev):

   -74.1534 -71.1406 -20.1421 -17.1124 -16.9004 -16.8050 -15.0175 -14.1910
   -13.8921 -11.4562 -10.6711  -9.8096   6.3042   8.8710  10.8107  10.8929
    11.6132  11.9264  11.9317  13.7849  16.9992  17.8525  17.9654  18.3637

          k = 0.0000 0.3333 0.3916 (    84 PWs)   bands (ev):

   -73.8238 -73.2690 -18.3168 -17.3322 -16.7963 -16.2771 -15.2070 -14.9801
   -14.7678 -14.0388 -13.3370 -12.8321   7.0898   9.1835  10.1091  10.2128
    10.9512  11.2318  12.7397  13.1925  13.7363  16.1888  16.5546  17.9859

          k = 0.0000 0.3333-0.7832 (    84 PWs)   bands (ev):

   -73.4825 -73.4822 -19.8137 -19.8135 -15.7993 -15.7993 -14.9504 -14.9504
   -13.2838 -13.2837 -12.9139 -12.9138   7.3787   7.3787  10.3088  10.3089
    11.5309  11.5309  14.1886  14.1886  14.9944  14.9944  16.0626  16.0627

          k = 0.3333 0.3333 0.0000 (    78 PWs)   bands (ev):

   -74.7340 -69.3543 -21.2861 -18.3552 -16.1226 -15.5178 -14.7534 -14.1266
   -12.1203 -10.5105  -9.5559  -8.8624   6.9111   8.7663  11.5567  11.7136
    11.8204  11.8342  12.5651  14.5314  15.5368  17.1957  17.3056  18.7182

          k = 0.3333 0.3333 0.3916 (    86 PWs)   bands (ev):

   -74.7335 -73.6402 -19.4508 -18.9870 -17.4795 -16.7742 -15.8301 -15.5477
   -15.2415 -13.5147 -13.0514 -12.6014   7.5085   8.4862   9.7329   9.8720
    11.0057  12.0832  12.5900  13.0858  14.1661  14.8516  16.0372  17.5551

          k = 0.3333 0.3333-0.7832 (    86 PWs)   bands (ev):

   -74.4107 -74.1583 -19.1231 -18.8935 -18.0920 -16.9617 -16.2492 -15.4225
   -14.9488 -13.6491 -13.4806 -12.7313   7.1034   7.2826   9.0464   9.4670
    11.1112  12.4051  12.6192  13.8753  14.3747  15.6552  17.0669  17.2634

     highest occupied level (ev):    19.7113

!    total energy              =    -304.01489607 Ry
     estimated scf accuracy    <       0.00000017 Ry

     The total energy is the sum of the following terms:
     one-electron contribution =     -19.93063954 Ry
     hartree contribution      =      28.31287294 Ry
     xc contribution           =     -50.88337003 Ry
     ewald contribution        =    -261.51375945 Ry

     convergence has been achieved in   9 iterations

     Writing all to output data dir ./tmp/TiO2.save/ :
     XML data file, charge density, pseudopotentials, collected wavefunctions

     init_run     :      0.30s CPU      0.33s WALL (       1 calls)
     electrons    :      0.36s CPU      0.39s WALL (       1 calls)

     Called by init_run:
     wfcinit      :      0.02s CPU      0.03s WALL (       1 calls)
     potinit      :      0.04s CPU      0.04s WALL (       1 calls)
     hinit0       :      0.23s CPU      0.24s WALL (       1 calls)

     Called by electrons:
     c_bands      :      0.22s CPU      0.23s WALL (       9 calls)
     sum_band     :      0.07s CPU      0.09s WALL (       9 calls)
     v_of_rho     :      0.00s CPU      0.00s WALL (      10 calls)
     newd         :      0.07s CPU      0.08s WALL (      10 calls)
     mix_rho      :      0.00s CPU      0.00s WALL (       9 calls)

     Called by c_bands:
     init_us_2    :      0.00s CPU      0.01s WALL (     171 calls)
     cegterg      :      0.20s CPU      0.22s WALL (      81 calls)

     Called by *egterg:
     cdiaghg      :      0.10s CPU      0.12s WALL (     286 calls)
     h_psi        :      0.09s CPU      0.10s WALL (     295 calls)
     s_psi        :      0.01s CPU      0.01s WALL (     295 calls)
     g_psi        :      0.00s CPU      0.00s WALL (     205 calls)

     Called by h_psi:
     h_psi:calbec :      0.01s CPU      0.01s WALL (     295 calls)
     vloc_psi     :      0.07s CPU      0.08s WALL (     295 calls)
                                        0.00s GPU  (     295 calls)
     add_vuspsi   :      0.01s CPU      0.01s WALL (     295 calls)

     General routines
     calbec       :      0.01s CPU      0.01s WALL (     376 calls)
     fft          :      0.11s CPU      0.11s WALL (      58 calls)
     ffts         :      0.03s CPU      0.03s WALL (      19 calls)
     fftw         :      0.06s CPU      0.07s WALL (   12428 calls)
     interpolate  :      0.03s CPU      0.03s WALL (      10 calls)

     Parallel routines

     PWSCF        :      0.77s CPU      0.89s WALL


   This run was terminated on:  19:27:56  17Sep2025            

=------------------------------------------------------------------------------=
   JOB DONE.
=------------------------------------------------------------------------------=
Note: The following floating-point exceptions are signalling: IEEE_INVALID_FLAG
